# vtk DataFile Version 3.0
vtk output
ASCII
DATASET POLYDATA
POINTS 25315 float
5.4023 8.7102 0.81677
5.2136 9.1045 0.72549
5.1059 9.2103 0.67955
5.1227 9.1413 0.69465
5.0573 9.1951 0.70664
5.0511 9.1265 0.71386
5.235 9.0384 0.77219
5.2159 9.0477 0.72629
5.2274 8.9422 0.77899
5.2273 8.9541 0.73543
5.332 8.7105 0.81879
5.2284 8.8434 0.79149
5.2307 8.8594 0.74675
5.2317 8.7426 0.79762
5.2368 8.7637 0.75734
5.1649 9.0236 0.77149
5.1381 9.0521 0.71989
5.1602 8.9449 0.77628
5.143 8.947 0.73213
5.0343 9.0506 0.71379
4.9857 8.9097 0.76634
5.0277 8.9433 0.72737
5.1476 8.8389 0.78892
5.133 8.8458 0.74524
5.1283 8.745 0.79206
5.1194 8.7532 0.75095
5.0052 8.8401 0.76899
5.0365 8.8396 0.74104
5.0045 8.7033 0.77365
5.0287 8.7362 0.74596
5.3877 8.6145 0.86768
5.4049 8.5451 0.87854
5.4034 8.664 0.81162
5.4035 8.5473 0.83671
5.3976 8.4661 0.88486
5.3871 8.3897 0.84401
5.3702 8.6334 0.87082
5.3378 8.5407 0.87817
5.2696 8.5382 0.87308
5.3495 8.6429 0.82619
5.3525 8.5437 0.83545
5.2375 8.6374 0.8199
5.2646 8.5497 0.83209
5.3363 8.4356 0.88576
5.3267 8.3473 0.89383
5.2615 8.4347 0.88281
5.2653 8.3428 0.88908
5.3341 8.4456 0.84361
5.3206 8.3601 0.84995
5.2716 8.4575 0.84132
5.2627 8.3327 0.85224
5.1353 8.6663 0.80181
5.1037 8.6766 0.76146
5.0429 8.6671 0.75751
5.321 8.2495 0.90528
5.328 8.112 0.96847
5.3277 8.1476 0.92311
5.2691 8.243 0.89681
5.2591 8.1417 0.90957
5.319 8.2706 0.86092
5.2643 8.2736 0.85708
5.1963 8.1791 0.86429
5.3211 8.0433 0.97349
5.3108 8.0456 0.93331
5.3048 7.9918 0.96863
5.3015 7.9781 0.93987
5.2559 8.0248 0.97099
5.2532 8.0446 0.92422
5.2743 7.9853 0.97432
5.2419 7.9801 0.94513
5.1281 8.1593 0.87453
5.1459 8.1714 0.85768
5.0981 7.9847 0.95898
5.0505 7.9823 0.957
4.9538 9.0964 0.6862
4.8107 9.1066 0.69737
4.697 9.1146 0.68097
4.6271 9.1102 0.68057
4.9382 9.0378 0.71197
4.9822 8.8964 0.7678
4.939 8.9538 0.71312
4.8273 9.0324 0.71401
4.857 8.947 0.71385
4.972 8.8077 0.76617
4.9426 8.8457 0.72256
4.9184 8.7547 0.7732
4.9444 8.765 0.74318
4.8341 8.822 0.72341
4.8232 8.7131 0.77757
4.8191 8.7744 0.71787
4.728 9.0417 0.69656
4.7283 8.956 0.71456
4.6389 9.0462 0.68354
4.6302 8.9433 0.69326
4.7237 8.8444 0.71555
4.7289 8.707 0.77203
4.7272 8.7483 0.72783
4.6583 8.8389 0.72408
4.6604 8.7008 0.77168
4.6386 8.7491 0.70807
4.5083 9.1241 0.67065
4.466 9.1222 0.66728
4.5352 9.0632 0.67929
4.5766 8.9263 0.68187
4.4491 9.0451 0.67458
4.578 8.7748 0.70092
4.3749 9.0428 0.66778
4.9554 8.6497 0.7893
4.8967 8.5546 0.79688
4.8118 8.6693 0.7801
4.7958 8.6715 0.74098
4.8352 8.5345 0.80069
4.8085 8.5034 0.75454
4.9074 8.4447 0.80861
4.9009 8.3642 0.80781
4.8308 8.4474 0.80964
4.8503 8.4843 0.7634
4.8279 8.357 0.8115
4.7392 8.6412 0.77971
4.7361 8.6736 0.73911
4.7414 8.5257 0.79758
4.6963 8.4991 0.7619
4.6352 8.6425 0.77312
4.6275 8.6697 0.7257
4.6239 8.5344 0.78442
4.6158 8.5176 0.74459
4.7465 8.4473 0.79676
4.7232 8.4687 0.75193
4.7423 8.3543 0.7952
4.6298 8.4771 0.78733
4.6263 8.4553 0.75076
4.677 8.3743 0.77557
4.7926 8.2928 0.79013
4.9318 8.0159 0.92276
4.5349 8.6178 0.77057
4.5431 8.6326 0.72294
4.5383 8.544 0.77521
4.5335 8.5553 0.73289
4.4736 8.6046 0.73949
4.4673 8.5803 0.76856
4.4753 8.5689 0.73157
4.5693 8.4861 0.77971
4.564 8.4805 0.73958
4.3255 7.9466 0.8176
4.2617 7.966 0.83537
3.7986 7.9245 0.74872
3.6964 7.9451 0.72261
5.1307 9.2419 0.65496
5.0786 9.1675 0.65922
3.6894 9.5018 0.4969
3.6479 9.5053 0.48746
3.6535 9.5169 0.45689
4.8234 9.3471 0.60063
4.736 9.3047 0.60611
4.6292 9.2404 0.59573
4.6565 9.1016 0.64127
4.7331 9.0601 0.65448
4.7028 8.9209 0.66224
4.6307 9.038 0.64623
4.6122 8.9486 0.64971
4.5865 8.8937 0.64941
4.3867 9.4112 0.53832
4.5711 9.2148 0.59222
4.5161 9.1155 0.64881
4.4211 9.1253 0.63735
4.3512 9.4047 0.57608
4.3424 9.4223 0.53246
4.3337 9.3474 0.58925
4.3228 9.3603 0.55159
4.2767 9.4016 0.52568
4.2376 9.3188 0.58001
4.2345 9.3411 0.55118
4.3156 9.2459 0.59488
4.297 9.2508 0.55611
4.3386 9.1469 0.61165
4.3336 9.1789 0.56327
4.2371 9.2345 0.58321
4.2339 9.2239 0.55732
4.2394 9.172 0.59499
4.2317 9.1805 0.554
4.5346 9.0493 0.63911
4.5477 8.9636 0.64381
4.4276 9.0468 0.63391
4.4496 8.9706 0.62512
4.5475 8.8896 0.65327
4.3573 9.0512 0.62514
4.1159 9.4142 0.57057
4.1192 9.4275 0.53756
4.1269 9.3363 0.57519
4.1291 9.3529 0.53605
4.0844 9.3039 0.57353
4.0753 9.3753 0.54318
4.1366 9.2401 0.58446
4.1269 9.2537 0.54561
4.136 9.1736 0.5933
4.1514 9.1779 0.55214
4.0346 9.232 0.58059
4.0366 9.2416 0.53506
4.0371 9.1561 0.59286
4.056 9.1654 0.55343
3.8109 9.4228 0.52567
3.8155 9.3418 0.52982
3.944 9.2235 0.57671
3.939 9.2355 0.53041
3.979 9.1515 0.59442
3.8458 9.2279 0.57001
3.8312 9.2563 0.52314
4.0414 9.0927 0.60838
4.0334 9.0894 0.55243
3.7283 9.4456 0.51092
3.7422 9.3387 0.52186
3.6324 9.4497 0.48897
3.6039 9.354 0.50904
3.6445 9.478 0.46026
3.7279 9.2431 0.52221
3.7236 9.1632 0.50964
3.6337 9.2375 0.51714
3.6327 9.1724 0.50519
3.5022 9.4332 0.48089
3.5244 9.3288 0.50175
3.472 9.4127 0.47669
3.4401 9.3359 0.4838
3.4967 9.4392 0.45725
3.499 9.3687 0.45688
3.4478 9.3609 0.45741
3.5328 9.2396 0.49813
3.5684 9.1701 0.50705
3.4337 9.2498 0.48632
3.4722 9.1923 0.47252
3.4962 9.2225 0.45739
3.5498 9.1931 0.46605
3.4255 9.2115 0.45382
3.3095 9.535 0.40871
3.2319 9.5496 0.39937
3.2158 9.5576 0.36053
3.1234 9.5329 0.4
3.1029 9.5321 0.35123
3.0258 9.5364 0.38942
3.0209 9.5352 0.34865
2.9442 9.5274 0.38823
2.955 9.5311 0.34734
3.3032 9.4254 0.46933
3.3099 9.3369 0.47615
3.2767 9.318 0.47107
3.3073 9.4505 0.42605
3.2986 9.3533 0.43192
3.2792 9.3244 0.44381
3.3312 9.2407 0.48599
3.339 9.1831 0.4823
3.2723 9.2375 0.48312
3.3107 9.2373 0.44482
3.324 9.1793 0.45978
3.2741 9.2593 0.44738
3.117 9.4482 0.40217
3.1083 9.334 0.43156
3.0379 9.3026 0.42277
3.1153 9.2931 0.44933
3.026 9.2886 0.4298
2.9127 9.312 0.44283
2.9372 9.2842 0.42149
5.6959 7.5794 1.0766
5.6478 7.5773 1.101
5.4918 7.3677 1.1217
5.4674 7.4022 1.1188
5.458 7.3303 1.125
5.4285 7.2569 1.1301
5.2875 7.5273 1.071
5.2321 7.5158 1.0716
5.3164 7.6577 1.047
5.2496 7.6137 1.0551
5.2555 7.5047 1.0652
5.1307 7.6331 1.021
5.1179 7.5476 1.0216
5.0862 7.5697 0.96403
4.9915 7.6144 0.97464
5.0247 7.6122 0.95967
5.0298 7.5392 1.0052
5.0238 7.568 0.9605
5.2896 7.3021 1.0708
5.2468 7.4602 1.0803
5.2282 7.3305 1.087
5.2257 7.2755 1.0911
5.12 7.4222 1.0716
5.161 7.352 1.0815
5.0495 7.4043 1.0675
5.0686 7.3926 1.0698
5.1723 7.2606 1.0777
5.23 7.341 1.0431
5.2281 7.2807 1.0454
5.1112 7.4365 1.0316
5.1683 7.3552 1.0356
5.0407 7.4521 1.0247
4.9926 7.3146 1.0329
5.1681 7.2755 1.0507
5.0799 7.288 1.0182
4.9901 6.6884 1.1472
4.8532 7.7782 0.90126
4.9599 7.6161 0.99031
4.9556 7.5267 1.0066
4.9739 7.5894 0.94779
4.8315 7.516 1.0133
4.9209 7.3349 1.0699
4.8025 7.2001 1.0766
4.7945 7.174 1.0824
4.772 7.2095 1.0739
4.7412 7.1405 1.077
4.6493 7.1348 1.0695
4.9529 7.4851 1.0102
4.9138 7.3341 1.0232
4.83 7.3391 1.018
4.7311 7.3425 1.0023
4.7058 7.3334 0.96443
4.6541 7.3428 1.0019
4.6616 7.3379 0.95819
4.6945 7.242 1.0572
4.699 7.1076 1.0586
4.669 7.2178 1.0568
4.6492 7.1477 1.0567
4.5341 7.8337 0.84963
4.8015 7.0627 1.0919
4.8082 6.928 1.1027
4.931 6.8075 1.1714
4.9205 6.8083 1.1296
4.9497 6.7359 1.1778
4.9401 6.7494 1.131
4.8213 6.8397 1.1063
4.8187 6.7159 1.1705
4.817 6.7459 1.1297
4.7363 7.0483 1.0814
4.7509 6.951 1.0858
4.6515 7.062 1.0742
4.6235 6.9324 1.0868
4.7286 6.8462 1.0823
4.7357 6.7512 1.1036
4.6337 6.8519 1.0885
4.6337 6.7515 1.0838
4.7036 7.0477 1.0415
4.6986 6.9603 1.0501
4.6502 7.0489 1.0564
4.6641 6.9432 1.0544
4.6874 6.8325 1.0656
4.6454 6.8508 1.0584
4.6191 6.7915 1.0591
4.9241 6.646 1.1831
4.9434 6.6515 1.1402
4.921 6.546 1.1898
4.9228 6.5584 1.1484
4.8306 6.6368 1.1774
4.8192 6.6452 1.1329
4.8246 6.543 1.1841
4.8267 6.5444 1.1453
4.9108 6.4444 1.1997
4.916 6.4708 1.1591
4.903 6.3529 1.2127
4.8388 6.4448 1.201
4.8358 6.4565 1.1522
4.8414 6.3338 1.2122
4.8168 6.3789 1.1656
4.7286 6.6439 1.1134
4.7386 6.5646 1.1304
4.6374 6.6455 1.1051
4.6331 6.5529 1.114
4.7296 6.3203 1.1986
4.7604 6.3424 1.1641
4.6523 6.4444 1.1313
4.632 6.3299 1.1944
4.625 6.3468 1.1496
4.5695 6.9223 1.0792
4.5566 6.8469 1.0791
4.5702 6.7465 1.0749
4.583 6.9363 1.062
4.5625 6.6352 1.0928
4.567 6.576 1.1038
4.5693 6.3195 1.1889
4.5494 6.3075 1.1555
4.1907 6.6885 1.0649
3.8003 7.7641 0.78786
3.7319 7.8261 0.80194
3.7318 7.84 0.75434
3.754 7.7785 0.80199
3.596 7.467 0.86892
3.6041 7.4649 0.83197
3.544 7.468 0.87228
3.4706 7.4671 0.86811
3.5283 7.4695 0.82398
3.4312 7.4636 0.81979
3.4024 7.1249 0.85184
4.1203 6.7094 1.0758
4.0762 6.7195 1.0705
4.1146 6.7224 1.0373
4.0723 6.7135 1.0389
4.1139 6.6782 1.0856
4.0314 6.6524 1.0802
4.088 6.4561 1.0955
4.0535 6.4649 1.1029
4.0133 6.3177 1.1131
3.9525 6.622 1.0764
3.9189 6.572 1.0802
3.8638 6.5355 1.0843
3.9663 6.3364 1.1033
4.1058 6.6804 1.0378
4.0284 6.65 1.0359
3.9881 6.589 1.049
4.0886 6.4512 1.0578
4.0624 6.4469 1.0598
3.9392 6.6199 1.0379
3.9245 6.5744 1.0382
3.836 6.6105 1.0181
3.8469 6.5571 1.0305
3.4003 7.0719 0.85872
3.6103 6.5484 1.0247
3.5358 6.5543 1.0147
3.4305 6.5613 1.0008
3.409 6.5552 0.95934
4.8903 6.2805 1.2122
4.8389 6.2817 1.228
4.7615 6.2866 1.2343
4.6149 6.2499 1.2024
4.6227 6.2906 1.1592
4.5417 6.2396 1.1994
4.5282 6.2469 1.1556
4.4304 6.2364 1.197
4.4272 6.2435 1.1519
4.3489 6.2456 1.1872
4.3415 6.25 1.1453
4.2289 6.244 1.1779
4.2221 6.2476 1.1369
4.1264 6.2573 1.1707
4.1304 6.2558 1.131
4.06 6.2607 1.1694
4.0354 6.2564 1.1268
3.9605 6.2672 1.1544
3.8372 6.2518 1.1442
3.3216 7.3646 0.86896
3.3439 7.4363 0.81945
3.3108 7.3564 0.82442
3.2579 7.3309 0.8205
3.3031 7.2453 0.843
3.3272 7.1469 0.85061
3.2559 7.25 0.83452
3.2306 7.1442 0.8457
3.1335 7.1467 0.84726
3.0306 7.1547 0.85271
2.9493 7.1308 0.86646
2.9249 7.2011 0.84707
2.9325 7.1519 0.85158
2.8132 7.2006 0.83394
2.8489 7.1397 0.84972
3.3091 6.8979 0.88103
3.3289 7.0724 0.85317
3.2295 7.06 0.84986
3.2092 6.9588 0.86027
3.2751 6.8571 0.88069
3.19 6.8906 0.86583
3.1078 6.9378 0.88663
3.0146 7.0116 0.87273
3.0418 6.9325 0.88233
3.1288 7.0481 0.8563
3.1338 6.9537 0.85802
3.0303 7.0516 0.8574
3.0229 6.9487 0.85791
3.139 6.8931 0.8787
3.1216 6.6961 0.907
3.0143 6.8455 0.90241
3.0081 6.7702 0.90379
[...]
POINT_DATA 25315
COLOR_SCALARS scalars 3
0.80784 0.79608 0.79608
0.51765 0.41176 0.29804
0.086275 0.031373 0.011765
0.19608 0.1098 0.070588
0.027451 0 0
0.086275 0.035294 0.027451
0.55686 0.47059 0.39608
0.4549 0.38431 0.32549
0.58039 0.49412 0.43137
0.43529 0.38039 0.33333
0.81569 0.75686 0.72941
0.60392 0.52941 0.47451
0.5451 0.46667 0.41569
0.72549 0.65098 0.59608
0.6902 0.60392 0.51765
0.38039 0.30196 0.23922
0.25098 0.18824 0.15686
0.38039 0.30588 0.26667
0.15686 0.12157 0.12157
0.16078 0.13333 0.13333
0.027451 0 0.019608
0.070588 0.066667 0.090196
0.38824 0.32157 0.27059
0.15686 0.11373 0.10588
0.45098 0.41176 0.38824
0.16471 0.14118 0.1451
0.011765 0 0.011765
0.070588 0.07451 0.098039
0.090196 0.1451 0.1451
0.094118 0.098039 0.12549
0.81569 0.75294 0.75686
0.79608 0.77255 0.80784
0.78824 0.76078 0.76863
0.78431 0.74902 0.76078
0.81176 0.78824 0.80392
0.81176 0.77255 0.81961
0.81569 0.76471 0.76863
0.75686 0.71373 0.72157
0.63137 0.65882 0.67451
0.77647 0.72157 0.71373
0.76078 0.70588 0.71765
0.61176 0.63529 0.64706
0.61176 0.63137 0.65098
0.79216 0.74118 0.76078
0.79216 0.76078 0.78824
0.65098 0.66667 0.70588
0.6902 0.69804 0.74118
0.75294 0.71373 0.73725
0.76078 0.72549 0.75686
0.63529 0.65098 0.67843
0.68235 0.68627 0.72941
0.54902 0.56078 0.53725
0.26667 0.29412 0.2902
0.15686 0.18039 0.21961
0.81176 0.78824 0.81961
0.88627 0.86667 0.88627
0.8549 0.83137 0.8549
0.74118 0.72941 0.76863
0.7098 0.69804 0.71373
0.80784 0.76471 0.8
0.7098 0.70588 0.7451
0.78824 0.74902 0.67843
0.87059 0.8549 0.88235
0.83922 0.82353 0.85098
0.76078 0.8 0.76863
0.68627 0.75686 0.65882
0.80392 0.78039 0.82745
0.75686 0.72549 0.77255
0.38431 0.55686 0.30196
0.63529 0.67059 0.67059
0.73725 0.75686 0.67843
0.4549 0.59216 0.33333
0.62745 0.63137 0.68627
0.2549 0.36863 0.18431
0.0039216 0 0
0 0 0
0 0 0
0 0 0.0078431
0.058824 0.054902 0.07451
0.031373 0.0039216 0.011765
0.10588 0.11373 0.15686
0.058824 0.054902 0.086275
0.14902 0.16471 0.21961
0.0039216 0 0.023529
0.023529 0.023529 0.043137
0.0039216 0 0.023529
0.0039216 0.0039216 0.015686
0.14118 0.15294 0.2
0.043137 0.058824 0.10588
0.13333 0.15686 0.21961
0.10588 0.11765 0.15686
0.15686 0.18431 0.23137
0.12549 0.1451 0.18431
0.0039216 0.0078431 0.015686
0.062745 0.066667 0.090196
0.054902 0.05098 0.13333
0.082353 0.098039 0.16078
0.023529 0.027451 0.039216
0.0039216 0.0039216 0.066667
0.066667 0.07451 0.098039
0.011765 0.011765 0.019608
0.019608 0.011765 0.023529
0.16863 0.16471 0.21961
0.0039216 0.0078431 0.015686
0.23137 0.28627 0.36863
0 0 0
0.17647 0.23137 0.2902
0.12549 0.15294 0.19608
0.25882 0.23922 0.27451
0.035294 0.05098 0.10588
0.019608 0.023529 0.086275
0.2902 0.25882 0.28235
0.27451 0.21961 0.23137
0.43922 0.38039 0.33333
0.61961 0.59608 0.62745
0.39216 0.33333 0.32157
0.13333 0.082353 0.10196
0.56078 0.52549 0.52549
0.027451 0.031373 0.078431
0.05098 0.054902 0.098039
0.19608 0.20784 0.27451
0.1451 0.19608 0.26275
0.054902 0.062745 0.094118
0.46667 0.45098 0.47451
0.15294 0.16863 0.24706
0.078431 0.094118 0.15686
0.21176 0.21569 0.25098
0.15686 0.16078 0.23922
0.44314 0.41961 0.42353
0.10588 0.18039 0.2549
0.094118 0.13725 0.21569
0.38824 0.3451 0.27059
0.59216 0.52549 0.5098
0.53333 0.48627 0.33333
0.32549 0.31373 0.29804
0.36471 0.33725 0.32157
0.023529 0.047059 0.082353
0.015686 0.027451 0.054902
0.2902 0.34118 0.34902
0.19216 0.20784 0.19216
0.058824 0.07451 0.090196
0.05098 0.098039 0.17647
0.011765 0.035294 0.066667
0.25098 0.37647 0.11373
0.40784 0.4549 0.36471
0.2 0.30196 0.38824
0.52157 0.61569 0.83922
0.070588 0.027451 0.019608
0.05098 0.023529 0.0078431
0 0 0
0.27451 0.26667 0.33333
0.54902 0.52549 0.65882
0.12549 0.082353 0.047059
0.12941 0.11765 0.098039
0.15686 0.10196 0.058824
0.19608 0.20392 0.25098
0.22353 0.23922 0.25882
0 0 0
0.10196 0.11765 0.1451
0 0 0.0078431
0 0.015686 0.035294
0.058824 0.023529 0.027451
0.039216 0.023529 0.027451
0.090196 0.078431 0.12549
0.082353 0.05098 0.031373
0.11765 0.047059 0.0039216
0.13333 0.054902 0.023529
0.13725 0.082353 0.047059
0.26275 0.20784 0.11373
0.17647 0.094118 0.015686
0.11765 0.070588 0.027451
0.24314 0.16471 0.10588
0.23922 0.090196 0.039216
0.37647 0.23529 0.12941
0.32157 0.16471 0.039216
0.30196 0.066667 0
0.21961 0.13725 0.070588
0.43922 0.25098 0.10588
0.24314 0.12941 0.05098
0.44706 0.20392 0.070588
0.20392 0.22353 0.27843
0 0 0
0.21569 0.23529 0.29412
0.0078431 0.0039216 0.019608
0 0 0.031373
0.05098 0.058824 0.062745
0.10588 0.015686 0
0.21176 0.11765 0.047059
0.18039 0.090196 0.039216
0.21569 0.11373 0.054902
0.090196 0.035294 0
0.15294 0.090196 0.023529
0.17647 0.11765 0.058824
0.20392 0.10196 0.05098
0.22745 0.14118 0.058824
0.22745 0.13333 0.011765
0.33333 0.25882 0.12941
0.34902 0.25882 0.16078
0.15686 0.11765 0.054902
0.14118 0.098039 0.039216
0.15294 0.15686 0.10588
0.36471 0.23137 0.1098
0.43137 0.32941 0.21176
0.4902 0.38039 0.26667
0.18824 0.13725 0.11765
0.3098 0.17255 0.070588
0.41176 0.2902 0.2
0.12157 0.0078431 0.0078431
0.12157 0.11765 0.031373
0.1451 0.098039 0.070588
0.23529 0.18824 0.1451
0.16471 0.1451 0.15294
0.17255 0.13333 0.10588
0.33333 0.28235 0.34902
0.40784 0.38824 0.38431
0.69412 0.68235 0.70196
0.58039 0.56471 0.54118
0.69412 0.6549 0.63922
0.098039 0.082353 0.035294
0.27059 0.24314 0.23922
0.30196 0.23529 0.16471
0.38431 0.32157 0.26667
0.047059 0 0
0.41569 0.36078 0.33725
0.45882 0.34902 0.18824
0.39608 0.32549 0.24706
0.43922 0.36078 0.29412
0.42745 0.32549 0.18431
0.35686 0.26275 0.18039
0.66667 0.47059 0.20784
0.37255 0.24706 0.15686
0.25098 0.16471 0.11765
0.52549 0.38431 0.23922
0.57255 0.42745 0.28627
0.47843 0.34902 0.21569
0.41569 0.25098 0.054902
0.38039 0.22353 0.027451
0.40784 0.25882 0.062745
0.36471 0.22353 0.043137
0.43922 0.32941 0.15686
0.44706 0.34118 0.16078
0.29804 0.13725 0
0.34902 0.18824 0.035294
0.29804 0.15294 0.0039216
0.29412 0.1451 0.015686
0.27451 0.11765 0
0.2902 0.14902 0
0.44706 0.30196 0.16078
0.28235 0.21176 0.12549
0.34118 0.18824 0.027451
0.28235 0.14902 0.05098
0 0 0
0.29412 0.1451 0
0.34118 0.20392 0.043137
0.48235 0.38039 0.29412
0.64706 0.58039 0.55686
0.75294 0.7098 0.7451
0.71765 0.68235 0.69412
0.60784 0.55686 0.49804
0.63529 0.60392 0.62745
0.28235 0.47451 0.47843
0.54118 0.62353 0.58824
1 1 1
1 1 1
1 1 1
1 1 1
1 1 1
1 1 1
1 1 1
1 1 1
1 1 1
0.82745 0.76863 0.65882
0.69804 0.69804 0.51765
0.84706 0.64314 0.63922
0.71373 0.68235 0.71373
0.64314 0.54118 0.56471
0.61176 0.5451 0.44314
0.69412 0.5451 0.5451
1 1 1
1 1 1
0.93725 0.94118 0.92549
0.99608 0.99608 0.99608
0.6549 0.63137 0.64706
0.92157 0.92157 0.92549
0.88627 0.88627 0.97647
0.79608 0.83137 0.96863
1 1 1
0.97647 0.98039 0.98824
0.99216 0.99608 0.99608
0.83922 0.69412 0.72157
0.93725 0.92941 0.97647
0.71373 0.62745 0.65098
0.90588 0.93333 0.99216
0.99608 1 1
0.9098 0.94118 1
0.39216 0.29412 0.17647
0.68235 0.63137 0.7098
0.50196 0.4902 0.51765
0.56078 0.49412 0.34902
0.5098 0.38824 0.45098
0.62353 0.70588 0.26667
0.87059 0.85098 0.88235
0.19216 0.16863 0.16078
0.18824 0.19216 0.33725
0.3451 0.27059 0.26667
0.32941 0.24314 0.27059
0.46667 0.31765 0.21569
0.63922 0.6902 0.50588
0.80392 0.7451 0.76078
0.76471 0.64314 0.57647
0.7451 0.59608 0.47451
0.6902 0.50196 0.27451
0.51765 0.38039 0.25882
0.48627 0.36471 0.24706
0.50588 0.30588 0.11373
0.62745 0.37255 0.16471
0.29412 0.15294 0.11765
0.25098 0.17255 0.17647
0.58824 0.67843 0.47059
0.52157 0.44706 0.4902
0.49804 0.31373 0.23922
0.4 0.27843 0.32157
0.34118 0.14902 0.13725
0.4 0.30588 0.21176
0.41569 0.3098 0.23137
0.29412 0.18824 0.17647
0.21569 0.20392 0.15686
0.20784 0.18431 0.13333
0.35294 0.25098 0.24706
0.38824 0.24314 0.16471
0.43137 0.28235 0.19216
0.29412 0.25882 0.18824
0.31373 0.23137 0.18039
0.19216 0.17647 0.12941
0.2549 0.20392 0.13725
0.25098 0.17255 0.047059
0.27059 0.18431 0.12157
0.3098 0.18039 0.07451
0.30588 0.19216 0.16471
0.37647 0.21569 0.1098
0.47843 0.29412 0.027451
0.43922 0.25882 0.090196
0.41176 0.22745 0.039216
0.40784 0.31373 0.22353
0.42745 0.32157 0.22353
0.40784 0.3098 0.23137
0.41961 0.31765 0.23137
0.21961 0.2 0.15686
0.19216 0.16863 0.12941
0.24706 0.21961 0.18039
0.26667 0.21961 0.16471
0.40392 0.29412 0.22353
0.46275 0.35294 0.28235
0.36863 0.26667 0.21176
0.25882 0.20784 0.16078
0.28235 0.23529 0.17647
0.19608 0.14902 0.12157
0.25098 0.20784 0.15294
0.16471 0.16863 0.090196
0.24706 0.19216 0.17255
0.18039 0.1451 0.07451
0.33333 0.20392 0.21569
0.16863 0.14118 0.16471
0.12157 0.1098 0.11765
0.31373 0.21961 0.23137
0.20392 0.18039 0.21961
0.19216 0.16471 0.19608
0.24314 0.18824 0.066667
0.21176 0.14902 0.066667
0.2549 0.17255 0.054902
0 0 0
0.22353 0.16078 0.10588
0.2549 0.15686 0.17647
0.13725 0.094118 0.12549
0.13333 0.031373 0.066667
0.75686 0.7451 0.63529
0.43137 0.45098 0.55686
0.32549 0.22745 0.18824
0.25882 0.18431 0.12549
0.38431 0.33725 0.38431
0.019608 0.05098 0.05098
0.07451 0.086275 0.1098
0.0078431 0.027451 0.023529
0 0.0078431 0.0039216
0.023529 0.035294 0.039216
0 0 0
0.63922 0.60784 0.55294
0.23529 0.22745 0.25098
0 0 0.0039216
0.26275 0.2549 0.28235
0 0 0
0.12157 0.10588 0.12157
0.027451 0.019608 0.039216
0.61176 0.61176 0.68627
0.60784 0.59608 0.64314
0.37255 0.42745 0.47059
0 0 0.0078431
0.0039216 0.0039216 0.0078431
0.015686 0.011765 0.023529
0.3451 0.4 0.43137
0.019608 0.015686 0.031373
0.0078431 0.0039216 0.019608
0 0 0.0078431
0.30196 0.28235 0.35686
0.38824 0.33725 0.38039
0 0 0
0 0 0
0 0 0
0.0039216 0.0078431 0.011765
0.61569 0.56863 0.4902
0.054902 0.078431 0.16078
0.078431 0.082353 0.2
0.047059 0.054902 0.12941
0.0039216 0.0078431 0.07451
0.35686 0.2902 0.21961
0.16471 0.13725 0.17647
0.11373 0.11373 0.18431
0.56471 0.50588 0.51765
0.10588 0.062745 0.098039
0.66275 0.62353 0.65882
0.68627 0.65882 0.69804
0.63137 0.61569 0.68627
0.58039 0.56471 0.63137
0.57647 0.58039 0.65882
0.54118 0.53333 0.60784
0.69412 0.69804 0.77647
0.63137 0.63529 0.72157
0.69804 0.71765 0.83137
0.68235 0.69804 0.8
0.74118 0.75686 0.86275
0.51373 0.53333 0.62745
0.18824 0.26667 0.38431
0.13725 0.18039 0.29804
0.023529 0.011765 0.12941
0 0 0.0039216
0.039216 0.05098 0.1451
0.043137 0.043137 0.094118
0.070588 0.10196 0.16078
0.46275 0.43137 0.38431
0.039216 0.039216 0.058824
0.48235 0.42745 0.36863
0.52941 0.44706 0.36078
0.59608 0.49412 0.4
0.76863 0.61569 0.42353
0.31765 0.25882 0.18039
0.69412 0.57647 0.48627
0.37647 0.38039 0.42745
0.76863 0.65098 0.58824
0.0039216 0.011765 0
0.71373 0.6549 0.57255
0.79216 0.71373 0.63529
0.28627 0.24706 0.21569
0.023529 0.027451 0.027451
0.16471 0.1098 0.1451
0.18431 0.18431 0.19216
0.39216 0.4 0.44706
0.27843 0.2549 0.24706
0.74118 0.63137 0.52157
0.35686 0.30196 0.25098
0.79608 0.67059 0.55686
0.47451 0.4 0.35294
0.12157 0.090196 0.16863
0.68235 0.56863 0.48235
0.55294 0.52549 0.47059
0.46667 0.4549 0.40392
0.19216 0.07451 0.090196
0.38431 0.24314 0.23529
0.41961 0.34902 0.32549
0 0 0
0.058824 0.090196 0.078431
0.0078431 0.011765 0.058824
0.0039216 0.0039216 0.043137
0.023529 0 0.0039216
0.043137 0.043137 0.047059
0.019608 0.019608 0.066667
0.058824 0.05098 0.078431
0.33333 0.27451 0.23529
0.3098 0.27451 0.21961
0.17647 0.17255 0.41569
0.53725 0.50196 0.31765
0.62745 0.59216 0.48627
0.52941 0.53725 0.29804
0.63922 0.64314 0.64314
0.87843 0.74902 0.6549
0.78431 0.67843 0.59216
0.70588 0.66275 0.58039
0.58431 0.59216 0.32941
0.63922 0.63529 0.61569
0.78431 0.78824 0.79216
0.74902 0.75294 0.77255
0.40392 0.36863 0.33725
0.6902 0.60784 0.62353
0.70196 0.54902 0.50196
0.57647 0.72157 0.94902
0.56078 0.51373 0.45882
0.78431 0.67843 0.55686
0.90196 0.71373 0.50196
0.85882 0.77255 0.74118
0.86275 0.72941 0.64706
0.53333 0.40392 0.28235
0.73725 0.56863 0.41176
0.76078 0.7098 0.66275
0.77255 0.64706 0.50196
0.92549 0.76471 0.56863
0.92549 0.74902 0.5451
0.96863 0.82745 0.68235
0.85882 0.69804 0.55294
0.79216 0.62353 0.46275
0.87059 0.6902 0.51765
0.16863 0.14118 0.14902
0.23137 0.15686 0.070588
0.37647 0.32549 0.29412
0.3098 0.23922 0.2
0.29804 0.23922 0.18431
0.23922 0.19608 0.16863
0.34118 0.26275 0.22745
0.5098 0.39216 0.26275
0.63137 0.43922 0.36078
0.87451 0.6902 0.47059
0.43529 0.35686 0.23529
0.82745 0.63529 0.46275
0.88627 0.67059 0.43137
0.91765 0.72157 0.53333
0.88627 0.6902 0.48627
0.78824 0.67451 0.56863
0.83922 0.70196 0.57255
0.93333 0.78039 0.67059
0.90588 0.75294 0.6549
0.93725 0.80392 0.68627
0.78431 0.67059 0.56078
0.31373 0.25098 0.19216
0.25882 0.21569 0.15686
0.039216 0.027451 0.031373
0.011765 0.0039216 0
0.039216 0.019608 0.0078431
0.019608 0.0078431 0
0.49412 0.42353 0.36863
0.35686 0.29412 0.24314
0.035294 0.015686 0
0.027451 0.011765 0.0078431
0.027451 0.011765 0.0078431
0.019608 0.0039216 0.0039216
0.28235 0.23922 0.18039
0.035294 0.0078431 0.0078431
0.43529 0.34902 0.2902
0.47059 0.37255 0.30588
0.41569 0.33725 0.26275
0.61569 0.50588 0.40392
0.77255 0.7098 0.6902
0.55294 0.45882 0.34902
0.76471 0.63922 0.50196
0.88235 0.83137 0.76863
0.6902 0.56471 0.42745
0.92157 0.8549 0.85098
0.60392 0.47059 0.34118
0.18431 0.13333 0.12157
0.5098 0.46275 0.41569
0.47451 0.38824 0.31373
0.72941 0.61569 0.4902
0.85882 0.70588 0.52549
0.67451 0.58039 0.51765
0.88627 0.79608 0.72157
0.72941 0.62353 0.54118
0.78431 0.69412 0.6
0.61961 0.49412 0.36471
0.87843 0.72549 0.54118
0.52549 0.41176 0.2902
0.66275 0.60392 0.55686
0.89804 0.79608 0.71765
0.79216 0.68235 0.57647
0.75294 0.65098 0.56471
0.2549 0.23137 0.22353
0.15294 0.058824 0
0.17255 0.10588 0.047059
0.17647 0.062745 0.0039216
0.24314 0.098039 0
0.22353 0.10588 0.019608
0.25098 0.10588 0.011765
0.15686 0.062745 0.0078431
0.24314 0.1098 0
0.27451 0.12549 0.015686
0.17255 0.070588 0.0078431
0.30196 0.14902 0.027451
0.21176 0.10196 0.054902
0.24314 0.094118 0
0.16078 0.070588 0.019608
0.090196 0.10196 0.14118
0 0 0
0.1451 0.16078 0.2
0.42745 0.2902 0.15686
0.43529 0.32549 0.20392
0.45882 0.32549 0.2
0.46275 0.25882 0.26275
0.26667 0.18431 0.11373
0.24314 0.19608 0.15294
0.098039 0.07451 0.058824
0.11765 0.1098 0.12549
0.12941 0.086275 0.066667
0.30588 0.2 0.082353
0.090196 0.062745 0.031373
0.43922 0.30588 0.14902
0.43529 0.30588 0.19216
0.4549 0.19608 0.21961
0.38824 0.070588 0.090196
0.43529 0.078431 0.094118
0.38824 0.066667 0.078431
0.42353 0.078431 0.098039
0.46275 0.20784 0.24314
0.35294 0 0.0078431
0.43137 0.12941 0.15294
0.44706 0.18431 0.19216
0.39216 0.38039 0.4
0.58431 0.59216 0.63529
0.24706 0.090196 0.10588
0.43529 0.3451 0.37255
0.28235 0.058824 0.07451
0.4549 0.41176 0.47451
0.41176 0.38039 0.41569
0.46275 0.42353 0.41569
0.44314 0.40784 0.4
0.66667 0.60784 0.49412
0.72941 0.66275 0.57255
0.72549 0.66667 0.5451
0.72157 0.66275 0.56471
0.70196 0.64706 0.53333
0.67451 0.61961 0.53333
0.6902 0.62745 0.52549
0.63922 0.58824 0.49804
0.64314 0.58431 0.47843
0.63137 0.58431 0.49804
0.55294 0.50196 0.36863
0.58431 0.53725 0.43529
0.5451 0.49412 0.36078
0.54902 0.50196 0.38039
0.69412 0.64314 0.55686
0.69804 0.64706 0.58431
0.67451 0.64314 0.60784
0.69412 0.64706 0.6
0.66667 0.63922 0.60784
0.67843 0.6549 0.70196
0.65882 0.60784 0.55294
0.68235 0.65882 0.66275
0.63137 0.58824 0.52549
0.64314 0.61961 0.61176
0.6902 0.69412 0.76863
0.68627 0.7098 0.80392
0.68235 0.7098 0.80392
0.71765 0.74902 0.83922
0.71373 0.72941 0.80784
0.72549 0.76863 0.8902
0.70588 0.74902 0.8549
0.61569 0.57647 0.51373
0.65098 0.63922 0.65882
0.58824 0.54902 0.48627
0.73333 0.76078 0.85882
0.62353 0.61176 0.62745
0.75294 0.78431 0.91373
0.71373 0.7451 0.84314
0.75686 0.81176 0.95294
0.73333 0.77647 0.91765
0.76863 0.80784 0.94902
0.70588 0.73725 0.83922
0.78824 0.85098 0.99216
0.78431 0.8549 0.98431
0.69412 0.75294 0.88627
0.69804 0.76078 0.87843
0.67451 0.74118 0.86275
0.72941 0.79216 0.93725
0.7098 0.77255 0.88627
0.6902 0.76471 0.9098
0.77255 0.84314 0.99216
0.74902 0.81961 0.98824
0.72157 0.80392 0.94118
0.32549 0.12157 0.12549
0.53725 0.4902 0.36471
0.53725 0.48627 0.37647
0.53333 0.48235 0.35686
0.54118 0.49412 0.38431
0.57255 0.53725 0.48627
0.61176 0.60392 0.62353
0.53725 0.5098 0.43922
0.58039 0.57647 0.59608
0.80784 0.86275 0.99216
0.65882 0.68627 0.76863
0.83137 0.90588 1
0.7098 0.76078 0.86275
0.85882 0.92941 1
0.65098 0.68627 0.77647
0.8902 0.96471 1
0.66667 0.72157 0.83137
0.54118 0.51765 0.45098
0.61176 0.62745 0.68627
0.54118 0.52549 0.48627
0.62745 0.65882 0.73725
0.67843 0.72941 0.83529
0.90588 0.98431 1
0.7098 0.76863 0.90588
0.70196 0.76471 0.90196
0.75294 0.81961 0.98039
0.80392 0.88627 0.99608
0.65098 0.71373 0.83529
0.72941 0.81569 0.98039
0.84314 0.92549 1
0.67451 0.74118 0.86667
0.74902 0.84314 1
0.2902 0.066667 0.070588
0.27843 0.066667 0
0.82353 0.92157 1
0.6902 0.75686 0.89804
0.62745 0.67843 0.78824
0.72549 0.8 0.95294
0.63922 0.69412 0.81961
0.6 0.63529 0.72157
0.59608 0.63529 0.73725
0.65098 0.69804 0.80784
0.65098 0.6902 0.79608
0.74902 0.81569 0.96863
0.79608 0.87451 0.99608
0.82745 0.90196 1
0.83529 0.91373 1
0.89804 0.97255 1
0.93333 1 1
0.74902 0.81961 0.97255
0.65882 0.71765 0.8549
0.79608 0.87059 0.99216
0.68627 0.75294 0.89412
0.57647 0.60784 0.68627
0.49412 0.43137 0.4549
0.36863 0.26275 0.20392
0.59216 0.63137 0.71765
0.39608 0.33725 0.34902
0.83137 0.90588 0.99608
0.70196 0.77255 0.91765
0.85882 0.93333 1
0.72549 0.8 0.94902
0.6 0.64706 0.7451
0.52941 0.4902 0.51373
0.59608 0.64706 0.74902
0.48627 0.42353 0.44314
0.88235 0.95686 1
0.73333 0.81176 0.9451
0.85098 0.92549 1
0.7098 0.78824 0.93725
0.61176 0.66667 0.77647
0.56471 0.55686 0.60392
0.62353 0.68627 0.79216
0.49804 0.48235 0.52941
0.6 0.65882 0.76863
0.40784 0.33725 0.38431
0.41176 0.36078 0.42745
0.43137 0.41569 0.47843
0.47059 0.47843 0.58039
0.46667 0.44314 0.57647
0.5098 0.49804 0.58431
0.61176 0.48235 0.34118
0.42745 0.32157 0.23922
0.42745 0.32941 0.26275
0.37255 0.28627 0.23529
0.43137 0.32549 0.24314
0.55294 0.48235 0.44314
0.50196 0.43137 0.39216
0.062745 0.047059 0.07451
0.22745 0.18431 0.15294
0.094118 0.066667 0.05098
0.38824 0.38824 0.39608
0.023529 0.082353 0.090196
0.015686 0.070588 0.086275
0.0078431 0.054902 0.062745
0 0.039216 0.047059
0.031373 0.078431 0.090196
0.011765 0.062745 0.066667
0.027451 0.098039 0.11373
0.24706 0.20784 0.15686
0.16471 0.12941 0.094118
0.57647 0.59608 0.62353
0.38431 0.40784 0.43137
0.58039 0.6 0.62745
0.55294 0.57647 0.59608
0.52549 0.54902 0.55686
0.68627 0.63529 0.70588
0.53725 0.56078 0.57255
0.62745 0.60784 0.65098
0.49412 0.52941 0.53725
0.47843 0.51765 0.53725
0.52941 0.54902 0.56078
0.56863 0.58824 0.60784
0.59608 0.60392 0.67059
0.62745 0.61961 0.71373
0.56863 0.57647 0.61961
0.63922 0.61176 0.69804
0.6902 0.66667 0.77255
0.63137 0.61569 0.72157
0.72549 0.68627 0.76471
0.65098 0.64314 0.72941
0.42353 0.43137 0.55686
0.32157 0.30588 0.37647
0.32941 0.32157 0.41176
0.52549 0.52941 0.65882
0.31373 0.28627 0.34118
0.19216 0.078431 0
0.32549 0.13725 0
0.20784 0.086275 0
0.1451 0.019608 0
0.27843 0.12157 0
0.18824 0.086275 0
0.098039 0.066667 0.054902
0.086275 0.066667 0.035294
0.070588 0.094118 0.13333
0.26275 0.24706 0.094118
0.40784 0.2549 0.07451
0.85882 0.75686 0.89412
0.39608 0.058824 0.07451
0.41569 0.078431 0.090196
0.47451 0.090196 0.090196
0.55294 0.10196 0.11373
0.37255 0.090196 0.12941
0.53333 0.10588 0.054902
0.52941 0.10196 0.066667
0.34118 0.1098 0.17647
0.35686 0.3451 0.37255
0.76078 0.70196 0.62353
0.78824 0.70588 0.63529
0.76078 0.69804 0.61961
0.58039 0.52549 0.42745
0.57647 0.51765 0.39216
0.5451 0.49412 0.35686
0.54902 0.49804 0.36863
0.53333 0.48235 0.36471
0.53725 0.4902 0.38431
0.53333 0.49412 0.41176
0.52941 0.51373 0.43922
0.63529 0.66667 0.75294
0.81569 0.8902 1
0.91373 0.98824 1
0.94118 1 1
0.82745 0.90196 1
0.68235 0.75294 0.92549
0.64314 0.74118 0.86667
0.27843 0.10196 0.13725
0.27843 0.10196 0.13725
0.30196 0.13333 0.16471
0.52157 0.4902 0.53725
0.51373 0.49412 0.53333
0.57647 0.59608 0.64314
0.58039 0.60392 0.67059
0.2902 0.21961 0.27059
0.35686 0.1451 0.11765
0.49412 0.48235 0.50588
0.60392 0.63922 0.72549
0.6 0.63922 0.75294
0.77255 0.87059 1
0.72549 0.82353 0.99608
0.72941 0.81961 0.99608
0.72549 0.8 0.94902
0.32549 0.12157 0.12549
0.27843 0.066667 0
0.027451 0.066667 0.086275
0.41569 0.31765 0.2
0.44314 0.3451 0.19608
0.23529 0.19608 0.20784
0.23529 0.19608 0.20784
0.027451 0.066667 0.078431
0 0.039216 0.039216
0.14118 0.12941 0.15294