# vtk DataFile Version 3.0
vtk output
ASCII
DATASET POLYDATA
POINTS 4188 float
0.96454 -0.19836 3.2095
0.77453 -0.11174 3.454
0.79174 -0.12967 3.402
0.83898 -0.17413 3.2733
0.99841 -0.2423 3.0815
1.0573 -0.29847 2.9189
0.85407 -0.23436 3.096
0.86146 -0.2962 2.9133
0.62068 -0.033126 3.6771
0.47048 0.028345 3.8496
0.46151 -0.023849 3.6945
0.3544 0.019691 3.8167
0.29375 -0.022186 3.6889
0.046321 -0.032041 3.6443
0.66446 -0.09338 3.5014
0.65132 -0.12739 3.3999
0.65926 -0.16542 3.2878
0.4604 -0.08745 3.5062
0.39829 -0.12284 3.3975
0.51788 -0.12447 3.4002
0.46094 -0.16142 3.2872
0.66565 -0.23241 3.0899
0.6597 -0.29371 2.9081
0.47203 -0.22518 3.0992
0.49438 -0.29248 2.9013
0.28567 -0.082929 3.5086
0.30029 -0.12093 3.397
0.29562 -0.15293 3.302
0.0052966 -0.086709 3.4798
0.00081451 -0.11539 3.3947
0.048377 -0.15778 3.2721
0.22799 -0.22975 3.0703
0.25385 -0.29132 2.8897
0.059575 -0.22076 3.0864
0.066669 -0.28602 2.8936
0.060184 -0.32259 2.785
1.0713 -0.33004 2.8263
0.85225 -0.32921 2.815
0.66293 -0.32591 2.8129
1.2376 -0.39115 2.6558
1.2068 -0.44184 2.5038
1.1739 -0.48439 2.3758
1.0523 -0.37301 2.6979
1.0623 -0.44395 2.4885
0.86064 -0.37137 2.6907
0.86453 -0.43869 2.4917
1.0599 -0.49896 2.3255
1.0395 -0.53177 2.2271
1.0279 -0.55598 2.1547
0.9071 -0.48957 2.3437
0.88228 -0.53042 2.2212
0.81927 -0.58 2.0705
0.84959 -0.63665 1.9047
0.83167 -0.68179 1.7699
0.69128 -0.35995 2.7139
0.62889 -0.43836 2.4779
0.44121 -0.36577 2.681
0.46171 -0.42874 2.4959
0.63954 -0.49525 2.3101
0.68814 -0.52675 2.2199
0.66037 -0.56688 2.0994
0.4634 -0.49231 2.3078
0.44553 -0.52502 2.2098
0.461 -0.56257 2.0997
0.25994 -0.35514 2.7011
0.2593 -0.42504 2.4941
0.065091 -0.3541 2.692
0.09437 -0.41629 2.5097
0.26663 -0.4907 2.3002
0.31179 -0.5528 2.1192
0.12676 -0.46744 2.3603
0.66212 -0.6341 1.9005
0.66035 -0.67702 1.7733
0.47713 -0.62893 1.9042
0.50626 -0.67388 1.7729
0.3593 -0.60642 1.9635
0.010629 -0.63239 1.8647
0.047998 -0.66824 1.7609
-0.15166 -0.037939 3.6144
-0.1425 -0.075502 3.5037
-0.14701 -0.11674 3.3814
-0.12756 -0.15383 3.2728
-0.33192 -0.082528 3.4711
-0.34496 -0.11374 3.3779
-0.35562 -0.15427 3.2572
-0.1373 -0.216 3.0881
-0.11277 -0.28171 2.8951
-0.31118 -0.20866 3.099
-0.24079 -0.25978 2.952
-0.49714 -0.098145 3.4145
-0.51329 -0.11467 3.3645
-0.48398 -0.12879 3.3246
-0.60865 -0.28361 2.8584
-0.78212 -0.20289 3.0865
-0.74166 -0.26906 2.8932
-0.88437 -0.20758 3.0662
-0.93764 -0.26472 2.8937
-1.0812 -0.26771 2.8759
-1.2465 -0.28391 2.8176
-0.088118 -0.31928 2.7855
-0.58034 -0.31499 2.7673
-0.74762 -0.31215 2.7652
-0.94658 -0.31138 2.755
-1.1453 -0.30734 2.7545
-1.2824 -0.30821 2.7434
-0.074647 -0.34584 2.7077
-0.43093 -0.37227 2.6071
-0.3891 -0.41738 2.4762
-0.20823 -0.50144 2.2387
-0.18693 -0.51887 2.1884
-0.15351 -0.55716 2.0771
-0.33986 -0.47821 2.2992
-0.34483 -0.5174 2.1828
-0.34081 -0.55373 2.0755
-0.55016 -0.34815 2.671
-0.53932 -0.40774 2.4953
-0.7378 -0.34451 2.67
-0.73634 -0.40324 2.4962
-0.53471 -0.47701 2.2905
-0.54779 -0.5166 2.1725
-0.53918 -0.54971 2.075
-0.74328 -0.47037 2.2971
-0.73068 -0.51401 2.1687
-0.74216 -0.54858 2.0656
-0.13855 -0.61884 1.8955
-0.13874 -0.66552 1.7573
-0.34026 -0.61386 1.8975
-0.34014 -0.66112 1.7577
-0.54148 -0.60946 1.898
-0.53766 -0.65803 1.7544
-0.73723 -0.60627 1.8952
-0.74057 -0.65576 1.7484
-0.93906 -0.34421 2.6583
-0.94025 -0.39934 2.495
-1.1353 -0.3416 2.6537
-1.1397 -0.39502 2.4953
-0.9385 -0.46484 2.3012
-0.94741 -0.51195 2.1612
-0.93939 -0.54555 2.0622
-1.1329 -0.4611 2.3001
-1.1024 -0.50688 2.1665
-1.0746 -0.53959 2.0714
-1.2907 -0.34489 2.6343
-1.3101 -0.38761 2.5066
-1.2655 -0.43711 2.3628
-0.9234 -0.59678 1.9116
-0.87519 -0.65005 1.7569
-0.6172 -0.098744 3.4052
-0.61105 -0.088943 3.4346
-0.56875 -0.10394 3.3928
-0.5247 -0.10142 3.4031
-0.51346 -0.1012 3.4044
-0.48609 -0.10154 3.4051
-0.44877 -0.091103 3.4384
-0.42528 -0.083508 3.4623
-0.42271 -0.081066 3.4697
-0.38016 -0.081874 3.47
-0.34738 -0.069448 3.5088
-0.32897 -0.069798 3.5089
-0.28224 -0.061098 3.5376
-0.27013 -0.059739 3.5424
-0.2257 -0.049419 3.5758
-0.22287 -0.047868 3.5805
-0.21195 -0.038538 3.6088
-0.18082 -0.03621 3.6177
-0.16809 -0.036776 3.6168
-0.14909 -0.037137 3.6169
-0.13009 -0.037499 3.617
-0.11486 -0.037918 3.6167
-0.028866 -0.038774 3.6196
0.01352 -0.026468 3.6587
0.015955 -0.014037 3.6956
0.027371 -0.014752 3.6942
0.081309 -0.027921 3.6586
0.090794 -0.041617 3.6187
0.088674 -0.042955 3.6146
0.087668 -0.055376 3.5778
0.064863 -0.066425 3.5436
-0.013071 -0.077565 3.5058
-0.0049225 -0.088541 3.4738
0.025198 -0.10088 3.4391
0.044496 -0.11376 3.4022
0.049821 -0.12467 3.3702
0.062679 -0.13676 3.3353
0.084983 -0.1472 3.3057
0.1039 -0.15879 3.2726
0.12582 -0.17079 3.2385
0.14308 -0.17957 3.2136
0.14356 -0.18217 3.2059
0.14945 -0.19134 3.1791
0.18463 -0.20049 3.1542
0.1897 -0.21004 3.1263
0.20581 -0.22088 3.0952
0.20883 -0.22261 3.0903
0.2471 -0.23216 3.0644
0.266 -0.2405 3.0409
0.28219 -0.25041 3.0126
0.28744 -0.25844 2.9891
0.30448 -0.26951 2.9574
0.30884 -0.27076 2.954
0.32896 -0.27743 2.9355
0.33776 -0.28536 2.9126
0.36681 -0.30207 2.8649
0.38229 -0.31196 2.8366
0.38745 -0.31932 2.8152
0.39378 -0.32637 2.7947
0.42461 -0.33696 2.7653
0.46417 -0.34439 2.7458
0.46439 -0.34563 2.7421
0.46467 -0.34711 2.7377
0.46541 -0.35166 2.7243
0.50011 -0.36559 2.6852
0.50051 -0.36776 2.6788
0.50282 -0.37394 2.6607
0.5437 -0.38791 2.6219
0.54383 -0.38862 2.6198
0.54934 -0.39542 2.6
0.56612 -0.40569 2.5707
0.58116 -0.41472 2.5449
0.58621 -0.42123 2.5259
0.60467 -0.42817 2.5066
0.63334 -0.44026 2.4725
0.64142 -0.45238 2.4372
0.66273 -0.46066 2.414
0.67088 -0.46569 2.3996
0.68329 -0.46985 2.3881
0.6873 -0.47691 2.3674
0.70318 -0.48677 2.3392
0.72384 -0.5036 2.2907
0.7257 -0.5083 2.2769
0.76511 -0.52444 2.2316
0.76558 -0.52891 2.2184
0.78448 -0.53956 2.188
0.78794 -0.54426 2.1743
0.79501 -0.54983 2.1583
0.82583 -0.56572 2.1132
0.86328 -0.58151 2.0688
0.8858 -0.58982 2.0456
0.90483 -0.59556 2.0298
0.91099 -0.60084 2.0146
0.92458 -0.61152 1.9838
0.94114 -0.616 1.9716
0.94452 -0.62149 1.9555
0.94923 -0.628 1.9366
0.94865 -0.62961 1.9317
0.94409 -0.63682 1.9101
0.9331 -0.64175 1.8948
0.92393 -0.64923 1.8721
0.90845 -0.65622 1.8505
0.90482 -0.66194 1.8333
0.90292 -0.66516 1.8236
0.88351 -0.67566 1.7913
0.87172 -0.68141 1.7736
0.86767 -0.68746 1.7554
0.84707 -0.69352 1.7362
0.83299 -0.69196 1.7399
0.79165 -0.68744 1.7507
0.74957 -0.68592 1.7526
0.72945 -0.68561 1.7522
0.71142 -0.68461 1.7541
0.69693 -0.68524 1.7513
0.66368 -0.68393 1.7531
0.65794 -0.68373 1.7533
0.62868 -0.68313 1.7532
0.61023 -0.68375 1.7503
0.59061 -0.68263 1.7523
0.57029 -0.68281 1.7505
0.54992 -0.68236 1.7506
0.53039 -0.68127 1.7526
0.5153 -0.68084 1.7529
0.47097 -0.68533 1.7369
0.44811 -0.66487 1.796
0.43879 -0.65269 1.8315
0.43709 -0.64716 1.8477
0.43386 -0.64044 1.8674
0.4274 -0.6346 1.8843
0.39458 -0.62554 1.9091
0.36316 -0.61103 1.95
0.35923 -0.60951 1.9543
0.35783 -0.60597 1.9647
0.35773 -0.60544 1.9662
0.35857 -0.60013 1.982
0.35096 -0.59288 2.003
0.33996 -0.58628 2.0219
0.2987 -0.57948 2.0394
0.29863 -0.57911 2.0405
0.29792 -0.56916 2.0699
0.29722 -0.56792 2.0735
0.29642 -0.56348 2.0866
0.27681 -0.55077 2.123
0.25865 -0.54194 2.148
0.21807 -0.52597 2.1928
0.21625 -0.52503 2.1954
0.20388 -0.52062 2.2077
0.19309 -0.50037 2.267
0.15482 -0.48969 2.2962
0.13541 -0.48397 2.3119
0.090551 -0.47018 2.3499
0.084877 -0.46428 2.3671
0.087131 -0.44989 2.4098
0.083537 -0.44439 2.4258
0.050639 -0.43171 2.4613
0.035435 -0.41907 2.4978
0.033536 -0.41285 2.5161
-0.0056887 -0.39466 2.5675
-0.0065619 -0.38579 2.5937
-0.048221 -0.37155 2.6332
-0.06274 -0.3636 2.6558
-0.086719 -0.35607 2.6766
-0.089237 -0.35511 2.6793
-0.10154 -0.34904 2.6965
-0.10956 -0.3413 2.7189
-0.11002 -0.33439 2.7394
-0.11462 -0.3269 2.7612
-0.1263 -0.31919 2.7833
-0.14408 -0.3112 2.8059
-0.16375 -0.30245 2.8305
-0.16943 -0.29476 2.853
-0.20663 -0.27715 2.9027
-0.23165 -0.27666 2.9026
-0.24079 -0.25978 2.952
-0.26093 -0.24143 3.0051
-0.32999 -0.22999 3.0346
-0.34087 -0.22126 3.0598
-0.34568 -0.21234 3.0859
-0.33207 -0.19341 3.1428
-0.37138 -0.18221 3.1735
-0.38977 -0.18181 3.1735
-0.40648 -0.18149 3.1734
-0.41118 -0.17163 3.2023
-0.42259 -0.16133 3.2321
-0.42949 -0.1508 3.2628
-0.47131 -0.1387 3.296
-0.511 -0.1272 3.3276
-0.52583 -0.12572 3.3311
-0.54346 -0.12478 3.3327
-0.57008 -0.12248 3.3379
-0.56827 -0.1128 3.3666
-0.81091 -0.66787 1.7082
-0.78065 -0.67225 1.6971
-0.77071 -0.67231 1.6975
-0.74355 -0.67266 1.6982
-0.73786 -0.67298 1.6976
-0.68702 -0.67403 1.6977
-0.67216 -0.67432 1.6978
-0.63812 -0.6705 1.7112
-0.60963 -0.66883 1.7179
-0.59001 -0.6692 1.7181
-0.56553 -0.67183 1.7118
-0.54972 -0.67271 1.7102
-0.53905 -0.67238 1.7119
-0.50152 -0.67309 1.7121
-0.47013 -0.66896 1.7263
-0.45041 -0.66933 1.7264
-0.43006 -0.66927 1.7279
-0.39181 -0.67171 1.7231
-0.36882 -0.67229 1.7228
-0.34976 -0.67167 1.7258
-0.32947 -0.67023 1.7314
-0.30986 -0.67017 1.7328
-0.28924 -0.67183 1.7292
-0.24898 -0.67568 1.7203
-0.22936 -0.67606 1.7204
-0.20974 -0.67643 1.7205
-0.16908 -0.67349 1.7318
-0.14674 -0.67294 1.7348
-0.13011 -0.67403 1.7326
-0.11087 -0.67445 1.7326
-0.087069 -0.67431 1.7345
-0.069109 -0.67639 1.7295
-0.036357 -0.6751 1.7353
-0.01033 -0.67207 1.7459
0.010451 -0.67203 1.7473
0.03055 -0.67193 1.7489
0.050604 -0.67352 1.7454
0.071841 -0.67716 1.736
0.11341 -0.67892 1.7334
0.11596 -0.67929 1.7325
0.12483 -0.67795 1.737
0.10452 -0.66866 1.7632
0.089865 -0.65516 1.8023
0.063177 -0.64172 1.8404
0.041879 -0.62515 1.8881
0.0047411 -0.61209 1.9244
-0.014438 -0.60357 1.9485
-0.017114 -0.59708 1.9675
-0.036753 -0.58485 2.0025
-0.051365 -0.57696 2.0249
-0.077021 -0.56341 2.0634
-0.07791 -0.5625 2.0661
-0.092063 -0.55497 2.0875
-0.13512 -0.53608 2.1407
-0.13663 -0.52798 2.1646
-0.13871 -0.52697 2.1674
-0.14718 -0.52253 2.1801
-0.17507 -0.51169 2.2104
-0.17749 -0.50687 2.2245
-0.19411 -0.49919 2.2462
-0.19974 -0.49583 2.2558
-0.21833 -0.48582 2.2843
-0.24586 -0.47738 2.3075
-0.25338 -0.46985 2.3294
-0.25575 -0.46473 2.3444
-0.271 -0.45394 2.3753
-0.29673 -0.44971 2.3863
-0.31074 -0.44505 2.3992
-0.32411 -0.43843 2.4179
[...]
POINT_DATA 4188
COLOR_SCALARS scalars 3
0.6902 0.67451 0.67059
0.75294 0.72941 0.70588
0.74118 0.72157 0.70588
0.72549 0.70588 0.69804
0.65098 0.63529 0.62353
0.61961 0.6 0.58431
0.69412 0.67451 0.66667
0.66667 0.65098 0.64314
0.72157 0.66667 0.58824
0.62745 0.55294 0.40784
0.66667 0.60784 0.4902
0.61176 0.53725 0.36471
0.58431 0.52157 0.39608
0.27451 0.23529 0.16863
0.7451 0.71373 0.66275
0.73725 0.7098 0.67059
0.73333 0.7098 0.67843
0.69804 0.65882 0.58431
0.68627 0.6549 0.58824
0.72157 0.6902 0.63529
0.70588 0.67451 0.62745
0.67451 0.65882 0.63529
0.54902 0.53333 0.51765
0.68627 0.66667 0.62745
0.6 0.58824 0.56078
0.61961 0.56863 0.47843
0.65098 0.61176 0.54118
0.61961 0.59216 0.51765
0.26667 0.23922 0.18431
0.31765 0.29412 0.24706
0.35294 0.33333 0.2902
0.41176 0.40392 0.38431
0.48627 0.47451 0.44314
0.4549 0.43529 0.38039
0.50588 0.4902 0.4549
0.50588 0.4902 0.46275
0.60784 0.58431 0.56863
0.65882 0.63922 0.63137
0.61176 0.58431 0.55686
0.53333 0.5098 0.4902
0.52157 0.50196 0.48627
0.50196 0.48627 0.47451
0.6 0.57647 0.56078
0.56078 0.53725 0.51765
0.63137 0.61176 0.59608
0.58039 0.56078 0.53725
0.5098 0.49412 0.47451
0.47843 0.47059 0.45098
0.44706 0.43922 0.41569
0.53333 0.51765 0.48627
0.41961 0.40392 0.37255
0.4 0.36471 0.3098
0.44706 0.4 0.33333
0.47451 0.41961 0.33725
0.64314 0.62353 0.6
0.41961 0.4 0.37255
0.43922 0.42353 0.39216
0.50196 0.47059 0.41961
0.4549 0.42353 0.37647
0.44706 0.40784 0.35686
0.49804 0.44706 0.38824
0.51373 0.46667 0.40784
0.50588 0.4549 0.39216
0.5098 0.45882 0.38431
0.52941 0.50588 0.46275
0.52549 0.4902 0.43922
0.50588 0.4902 0.45882
0.51373 0.4902 0.45098
0.52157 0.47843 0.41961
0.51765 0.47059 0.39608
0.51765 0.4902 0.43922
0.5098 0.4549 0.37255
0.52941 0.47059 0.37647
0.52549 0.46667 0.38039
0.56863 0.50196 0.4
0.47843 0.43922 0.34118
0.49804 0.46275 0.38824
0.50196 0.45882 0.37255
0.011765 0 0
0.25882 0.23137 0.16863
0.42745 0.40392 0.34118
0.42745 0.40784 0.35294
0.1098 0.082353 0.047059
0.33333 0.29804 0.21961
0.38039 0.35294 0.2902
0.47843 0.46667 0.43529
0.50588 0.49804 0.48235
0.44706 0.43529 0.40392
0.51765 0.51373 0.52549
0.043137 0.035294 0.027451
0.062745 0.05098 0.05098
0.16863 0.14902 0.1098
0.46667 0.4902 0.50196
0.22745 0.21961 0.18824
0.40392 0.41961 0.41961
0.090196 0.082353 0.07451
0.28235 0.2902 0.27451
0.14118 0.14902 0.13333
0 0.0039216 0
0.50196 0.49804 0.48627
0.5098 0.5451 0.58431
0.48627 0.52549 0.56078
0.40392 0.44314 0.44706
0.25882 0.27451 0.25882
0.10196 0.11765 0.10588
0.50588 0.49804 0.48235
0.52941 0.55686 0.58824
0.50588 0.52549 0.5451
0.5098 0.50196 0.4902
0.5098 0.49804 0.48235
0.49804 0.48627 0.4549
0.49412 0.49412 0.49412
0.49804 0.50196 0.50196
0.48235 0.48627 0.48235
0.52941 0.56863 0.60784
0.52549 0.56078 0.60784
0.5098 0.56471 0.61569
0.51373 0.58039 0.63529
0.42745 0.44706 0.46275
0.47059 0.49804 0.52157
0.45098 0.48235 0.50196
0.47451 0.53725 0.59608
0.35686 0.39608 0.41176
0.40392 0.46667 0.49412
0.47451 0.4549 0.41176
0.45882 0.43922 0.37647
0.44314 0.44706 0.43529
0.41569 0.41961 0.39608
0.40392 0.43529 0.44314
0.37255 0.40392 0.39608
0.36471 0.41961 0.43922
0.31373 0.35686 0.35294
0.46275 0.52941 0.56471
0.50196 0.58824 0.64706
0.35686 0.40392 0.40392
0.4549 0.54902 0.58824
0.48627 0.58039 0.63922
0.45882 0.54902 0.60392
0.41569 0.5098 0.55686
0.49412 0.61961 0.68627
0.44706 0.58039 0.65098
0.41961 0.55294 0.63529
0.26667 0.29804 0.28235
0.35294 0.43922 0.45882
0.47451 0.63922 0.73333
0.32157 0.39608 0.42745
0.26275 0.34118 0.37255
0.17647 0.2549 0.22745
0.047059 0.07451 0.062745
0.23922 0.16471 0.44706
0.035294 0.011765 0
0.031373 0.0078431 0.0078431
0.035294 0.011765 0.0078431
0.035294 0.015686 0
0.027451 0.0078431 0
0.043137 0.019608 0
0.035294 0.015686 0
0.047059 0.023529 0
0.047059 0.019608 0.015686
0.035294 0.015686 0
0.039216 0.015686 0.0039216
0.035294 0.011765 0
0.047059 0.023529 0
0.019608 0 0
0.039216 0.015686 0
0.027451 0.0078431 0
0.015686 0.0039216 0
0.0039216 0 0
0 0 0
0.28627 0.27843 0.1451
0.031373 0.0039216 0
0.058824 0.039216 0.0078431
0.043137 0.031373 0.0078431
0.4549 0.38039 0.24314
0.47451 0.39608 0.27843
0.48235 0.41176 0.26275
0.51373 0.4549 0.32549
0.38431 0.37255 0.22745
0.21569 0.18824 0.15294
0.22745 0.19608 0.14902
0.22353 0.19216 0.11373
0.24706 0.20784 0.16863
0.25098 0.20784 0.18824
0.23137 0.22353 0.16863
0.26275 0.2549 0.21176
0.27059 0.25098 0.21569
0.27451 0.27059 0.23922
0.2902 0.27843 0.23137
0.30196 0.27843 0.26667
0.29804 0.28627 0.27059
0.31373 0.30588 0.2902
0.3098 0.30588 0.2902
0.31373 0.29804 0.30196
0.31765 0.31373 0.33333
0.32941 0.32157 0.32549
0.3451 0.33333 0.34118
0.3451 0.34118 0.34118
0.35294 0.3451 0.3451
0.33725 0.32549 0.33725
0.34902 0.32549 0.36471
0.34902 0.3451 0.35294
0.35686 0.3451 0.35294
0.35294 0.3451 0.35686
0.35294 0.33725 0.32941
0.3451 0.33333 0.32549
0.34118 0.33333 0.32549
0.31373 0.3098 0.27451
0.35686 0.32941 0.33725
0.3451 0.33333 0.31765
0.34118 0.31373 0.31765
0.34902 0.33333 0.32157
0.37647 0.35294 0.33333
0.33725 0.32549 0.31765
0.34118 0.32549 0.32157
0.35686 0.32549 0.34118
0.35686 0.32941 0.33725
0.3451 0.31765 0.31373
0.30588 0.28627 0.26667
0.34902 0.31765 0.32941
0.3451 0.31765 0.31373
0.34118 0.31765 0.3098
0.35294 0.32157 0.32941
0.34902 0.32157 0.31373
0.34902 0.31765 0.28627
0.34902 0.31765 0.30588
0.34118 0.31373 0.2902
0.3451 0.31373 0.2902
0.34902 0.31765 0.29804
0.34118 0.3098 0.2902
0.3451 0.31765 0.28627
0.34118 0.3098 0.28235
0.34118 0.3098 0.26667
0.33725 0.30588 0.27451
0.33725 0.30588 0.27843
0.33725 0.30588 0.27451
0.33725 0.30588 0.27451
0.33333 0.30588 0.27059
0.32941 0.3098 0.22745
0.33333 0.29412 0.24706
0.32549 0.29804 0.24706
0.33725 0.3098 0.25882
0.32157 0.29412 0.25098
0.33725 0.2902 0.21569
0.32941 0.2902 0.22745
0.34902 0.31765 0.24314
0.36471 0.34118 0.26275
0.38431 0.36078 0.29804
0.4 0.36863 0.30196
0.41569 0.38824 0.32157
0.42745 0.38824 0.32941
0.43137 0.38824 0.32941
0.45098 0.4 0.32157
0.45882 0.40784 0.32549
0.46275 0.41569 0.33333
0.47059 0.41569 0.32941
0.47451 0.41569 0.33725
0.4902 0.43529 0.35294
0.50196 0.4549 0.36078
0.51373 0.45882 0.36471
0.51765 0.46275 0.37255
0.52549 0.46667 0.38431
0.53725 0.48235 0.4
0.5451 0.48627 0.38824
0.54902 0.4902 0.39216
0.56078 0.49412 0.40392
0.56078 0.50196 0.39608
0.56471 0.50588 0.4
0.57255 0.50588 0.4
0.58039 0.51373 0.41569
0.59216 0.52157 0.41176
0.57647 0.51373 0.40392
0.56863 0.49804 0.39608
0.5451 0.48235 0.36863
0.54118 0.47451 0.38824
0.54118 0.47843 0.38431
0.54118 0.47451 0.39216
0.42353 0.38039 0.25098
0.42353 0.4 0.28235
0.36078 0.3451 0.15294
0.5451 0.50588 0.47059
0.53333 0.48235 0.40784
0.53725 0.47843 0.40784
0.52549 0.47059 0.38431
0.51765 0.47059 0.38824
0.52157 0.48235 0.38824
0.51765 0.47843 0.39216
0.52157 0.47059 0.39216
0.51765 0.47451 0.40784
0.52157 0.47059 0.39216
0.51765 0.47059 0.40392
0.51765 0.47451 0.40784
0.51765 0.47451 0.40784
0.51373 0.47451 0.40784
0.50588 0.49412 0.40784
0.51765 0.47843 0.42353
0.52157 0.4902 0.43137
0.52941 0.4902 0.43529
0.54118 0.50588 0.45098
0.51765 0.50196 0.43529
0.52941 0.49804 0.43922
0.51765 0.49412 0.46667
0.52941 0.49804 0.44314
0.5098 0.49412 0.47059
0.51373 0.49412 0.4549
0.51373 0.49804 0.48235
0.51373 0.49412 0.47451
0.51373 0.50196 0.47843
0.5098 0.49804 0.48235
0.51373 0.50196 0.4902
0.51373 0.50196 0.47843
0.51765 0.5098 0.5098
0.51373 0.50588 0.49412
0.5098 0.50588 0.4902
0.5098 0.50196 0.48627
0.5098 0.50196 0.50196
0.50588 0.50588 0.49804
0.50588 0.5098 0.4902
0.50588 0.50588 0.49804
0.5098 0.5098 0.50196
0.52549 0.52157 0.50588
0.51765 0.51373 0.52549
0.49804 0.49412 0.47843
0.48627 0.47843 0.45882
0.48627 0.47843 0.46275
0.43922 0.43137 0.39216
0.42353 0.41961 0.38431
0.4 0.38039 0.32941
0.38431 0.36863 0.3098
0.37255 0.36863 0.28235
0.36078 0.34118 0.29804
0.35294 0.32941 0.29412
0.36078 0.33725 0.28627
0.32549 0.27059 0.2
0.24706 0.25098 0.16078
0.062745 0.070588 0.058824
0.10196 0.13725 0.14902
0.078431 0.18431 0.086275
0.0039216 0.023529 0.023529
0.27059 0.3098 0.29804
0.28235 0.32549 0.30588
0.28627 0.32549 0.31765
0.29804 0.33725 0.32941
0.30588 0.34118 0.34118
0.32549 0.36078 0.36078
0.33333 0.36863 0.36863
0.34118 0.37647 0.37255
0.3451 0.38824 0.37255
0.35294 0.39216 0.38039
0.35686 0.39608 0.38039
0.36471 0.39608 0.38824
0.38039 0.4 0.39216
0.38039 0.4 0.39216
0.38431 0.40392 0.38824
0.39216 0.41176 0.39216
0.4 0.40784 0.38824
0.40392 0.41569 0.39216
0.41176 0.41569 0.38431
0.41176 0.41961 0.38824
0.41961 0.41961 0.39216
0.42353 0.42353 0.38824
0.42353 0.42745 0.38824
0.43137 0.42745 0.38824
0.43137 0.43137 0.37647
0.43529 0.42745 0.37255
0.45098 0.43529 0.35686
0.4549 0.43922 0.35294
0.46275 0.43922 0.37255
0.46667 0.44314 0.36471
0.47451 0.44706 0.38039
0.47843 0.45098 0.36863
0.4902 0.44706 0.37647
0.49804 0.4549 0.36863
0.49804 0.45882 0.38039
0.50196 0.46275 0.38039
0.50196 0.46667 0.37647
0.50588 0.47059 0.37255
0.51373 0.47059 0.38039
0.51373 0.46667 0.37647
0.52549 0.47059 0.36471
0.51765 0.46667 0.37255
0.50588 0.46275 0.37647
0.5098 0.46667 0.38431
0.4902 0.47843 0.38431
0.51373 0.47059 0.40392
0.5098 0.47451 0.40784
0.5098 0.47843 0.42745
0.52157 0.47843 0.41176
0.52157 0.47451 0.41961
0.51373 0.4902 0.45098
0.51373 0.49412 0.43922
0.5098 0.4902 0.43529
0.5098 0.4902 0.46667
0.51373 0.49804 0.46667
0.5098 0.49804 0.46667
0.52157 0.49804 0.47059
0.5098 0.50196 0.49804
0.51373 0.50196 0.47843
0.51373 0.50196 0.4902
0.51373 0.5098 0.48235
0.51373 0.50196 0.50588
0.51765 0.51373 0.51373
0.52157 0.52157 0.51373
0.52157 0.52157 0.51373
0.5098 0.51765 0.52941
0.52941 0.52549 0.5451
0.52157 0.53333 0.54118
0.52549 0.54118 0.55294
0.52549 0.54118 0.55294
0.52941 0.5451 0.56863
0.53333 0.54118 0.56471
0.52941 0.5451 0.57255
0.52941 0.54902 0.57255
0.52941 0.55294 0.57255
0.53333 0.55686 0.58824
0.53333 0.56078 0.58431
0.53333 0.55686 0.57647
0.52941 0.55686 0.58431
0.53725 0.56078 0.59608
0.53725 0.56078 0.60392
0.53725 0.56078 0.59216
0.52549 0.56078 0.57647
0.52157 0.55294 0.58039
0.50588 0.53333 0.56471
0.49804 0.53333 0.5451
0.48235 0.50588 0.52157
0.45098 0.47843 0.47451
0.43922 0.4549 0.47059
0.43137 0.45098 0.44314
0.40784 0.40784 0.40784
0.33333 0.33333 0.29804
0.33725 0.31765 0.28627
0.33333 0.33333 0.29804
0.31765 0.31373 0.27843
0.32549 0.3098 0.27451
0.34902 0.33333 0.27059
0.29412 0.26667 0.22353
0.2 0.2 0.2
0.16471 0.16078 0.12549
0.015686 0 0.011765
0.023529 0 0.0039216
0.011765 0.011765 0.011765
0.0039216 0.0039216 0.0039216
0.0039216 0.0039216 0.0039216
0.0078431 0.0078431 0.0078431
0.0039216 0.0039216 0.0078431
0.011765 0.0039216 0.0039216
0 0 0.0078431
0.039216 0.039216 0.035294
0.027451 0.011765 0.015686
0.0039216 0 0
0.0039216 0 0.011765
0.015686 0.0078431 0.019608
0.0039216 0 0
0 0 0.019608
0.0039216 0 0.0039216
0.0039216 0 0.011765
0.0039216 0 0.0039216
0.15294 0.17647 0.15686
0.039216 0.054902 0.035294
0.0078431 0 0.0039216
0 0.0039216 0
0 0 0.011765
0.019608 0.035294 0.015686
0.14118 0.17255 0.1451
0.23529 0.24314 0.20784
0.30588 0.31765 0.29804
0.16863 0.2 0.21569
0.0039216 0.0039216 0.0039216
0 0.019608 0.047059
0.15686 0.19216 0.19608
0.27843 0.32157 0.30588
0.2549 0.3098 0.28235
0.27843 0.32549 0.3098
0.21176 0.31765 0.29412
0.41569 0.55294 0.63529
0.63137 0.76471 0.92549
0.23922 0.35686 0.4549
0.25098 0.41961 0.51765
0.34902 0.5451 0.66275
0.75294 0.8902 1
0.71373 0.8902 0.99216
0.6 0.77647 0.94902
0.22745 0.47059 0.59216
0.27451 0.53725 0.72549
0.57255 0.74902 0.86667
0.69804 0.86667 0.99608
0.54118 0.74118 0.88235
0.65882 0.86667 1
0.61569 0.81961 0.96863
0.65882 0.85882 1
0.30588 0.49804 0.59608
0.19216 0.40784 0.5451
0.28627 0.48627 0.60392
0.35294 0.52549 0.64314
0.5098 0.67843 0.84706
0.58824 0.75686 0.87843
0.46275 0.6549 0.79608
0.52941 0.7098 0.84314
0.43529 0.62745 0.78039
0.47843 0.65098 0.76078
0.34118 0.46275 0.55686
0.31373 0.45882 0.56863
0.27451 0.40784 0.48627
0.2549 0.38039 0.47451
0.48627 0.64314 0.78431
0.25098 0.4 0.48627
0.2902 0.39216 0.46275
0.26667 0.36863 0.43922
0.32549 0.47843 0.6
0.41961 0.56863 0.67059
0.23137 0.4 0.50588
0.16078 0.31765 0.36471
0.42745 0.58431 0.68627
0.23922 0.38431 0.46667
0.22745 0.32941 0.35686
0.25882 0.33725 0.4
0.66667 0.59608 0.43137
0.65098 0.57647 0.40784
0.63922 0.55294 0.39608
0.61961 0.54118 0.38039
0.6 0.51765 0.36471
0.58039 0.50196 0.36471
0.63137 0.5451 0.37647
0.61569 0.53333 0.36471
0.59608 0.52941 0.37647
0.46275 0.4 0.30588
0.45098 0.38039 0.28627
0.58039 0.50588 0.36471
0.52941 0.46275 0.32941
0.42353 0.35294 0.27059
0.41176 0.34902 0.24706
0.62745 0.55686 0.45882
0.4902 0.43529 0.32941
0.48627 0.43922 0.35686
0.40784 0.35294 0.24706
0.49412 0.4549 0.36863
0.62353 0.57647 0.48627
0.58824 0.5451 0.45098
0.63137 0.58824 0.49804
0.54902 0.51765 0.43137
0.50196 0.47059 0.38039
0.46275 0.42745 0.33333
0.48627 0.46275 0.40392
0.53333 0.51765 0.45098
0.60392 0.58431 0.48627
0.66667 0.63922 0.59216
0.65098 0.61569 0.56078
0.56471 0.5451 0.51765
0.61569 0.60392 0.52549
0.66667 0.64706 0.6
0.66667 0.64706 0.6
0.67059 0.66275 0.60392
0.60392 0.6 0.56471
0.6549 0.63529 0.58039
0.61176 0.59216 0.56863
0.61961 0.60784 0.61176
0.62353 0.61176 0.61569
0.61961 0.60392 0.59216
0.68235 0.64706 0.64314
0.63922 0.63529 0.61961
0.78824 0.68627 0.52157
0.84706 0.73333 0.52941
0.63529 0.61569 0.60392
0.60392 0.58824 0.63529
0.59608 0.59608 0.60784
0.60784 0.58824 0.59216
0.60392 0.59608 0.58039
0.6 0.58039 0.56471
0.58431 0.58039 0.56471
0.56863 0.56471 0.52549
0.53725 0.51765 0.49412
0.5451 0.52549 0.47059
0.53333 0.52157 0.43529
0.55294 0.5451 0.50196
0.54902 0.53333 0.50196
0.5451 0.53333 0.50196
0.52941 0.53725 0.49804
0.52941 0.51765 0.44314
0.50588 0.49804 0.45098
0.49804 0.49412 0.46667
0.46667 0.45882 0.44314
0.47059 0.46275 0.43922
0.46667 0.4549 0.42353
0.43137 0.42745 0.39216
0.4549 0.45098 0.40784
0.43137 0.42745 0.36863
0.42745 0.41961 0.40392
0.43137 0.42353 0.40784
0.44706 0.42353 0.41569
0.46667 0.45098 0.42745
0.46667 0.46275 0.44314
0.47059 0.46667 0.44706
0.48627 0.47059 0.45098
0.48235 0.47059 0.45098
0.4902 0.48235 0.46667
0.48627 0.48235 0.45882
0.49412 0.48235 0.46275
0.49804 0.48235 0.46275
0.50588 0.4902 0.47059
0.50196 0.48627 0.47059
0.5098 0.4902 0.49804
0.5098 0.4902 0.47451
0.50588 0.49412 0.47843
0.52157 0.49804 0.47843
0.50588 0.48235 0.46275
0.51373 0.49804 0.47843
0.51765 0.49804 0.47843
0.51765 0.4902 0.47451
0.51373 0.4902 0.46667
0.51765 0.49804 0.46667
0.50588 0.50196 0.48627
0.39216 0.36078 0.4
0.53333 0.52157 0.4902
0.55294 0.52941 0.5098
0.55294 0.53333 0.50588
0.55686 0.53725 0.50196
0.58039 0.56471 0.53333
0.58039 0.55686 0.5451
0.60784 0.57647 0.53333
0.59216 0.56863 0.56078
0.58824 0.56471 0.57255
0.60784 0.58824 0.59216
0.60784 0.59216 0.56863
0.62353 0.61569 0.6
0.65098 0.61569 0.60784
0.64314 0.63529 0.62745
0.65882 0.64314 0.61961
0.66667 0.63922 0.63137
0.67843 0.6549 0.63922
0.67451 0.6549 0.64314
0.6902 0.67451 0.67059
0.71765 0.7098 0.70588
0.73333 0.71765 0.71765
0.7451 0.71765 0.72549
0.73333 0.72549 0.7098
0.73333 0.71373 0.7098
0.73333 0.7098 0.70196
0.73725 0.72549 0.69412
0.74902 0.72941 0.71373
0.7451 0.72941 0.70588
0.77647 0.73725 0.70588
0.78039 0.75686 0.7098
0.76863 0.73725 0.68627
0.76863 0.72941 0.69804
0.75294 0.70196 0.61176
0.75294 0.70588 0.63529
0.73725 0.67843 0.60392
0.7451 0.6902 0.66275
0.56863 0.49804 0.54902
0.58824 0.51373 0.43529
0.67059 0.59216 0.46667
0.64314 0.56863 0.43137
0.67451 0.60784 0.42353
0.41176 0.42745 0.45098
0.42745 0.43922 0.47451
0.39608 0.41176 0.44706
0.38824 0.39608 0.42353
0.48235 0.4902 0.52157
0.47451 0.46667 0.43137
0.50588 0.49804 0.51765
0.5098 0.50196 0.52157
0.4902 0.49804 0.52941
0.43137 0.43137 0.44706
0.49412 0.47843 0.46667
0.46667 0.45098 0.42353
0.43529 0.42353 0.41176
0.43922 0.4549 0.48235
0.49804 0.48627 0.47843
0.44314 0.42745 0.44706
0.39608 0.4 0.41961
0.43922 0.37647 0.32549
0.57255 0.53725 0.52941
0.53725 0.53725 0.50196
0.52157 0.52157 0.5098
0.44706 0.4 0.38824
0.39608 0.35686 0.32549
0.49412 0.46667 0.45882
0.44314 0.41961 0.40392
0.49804 0.48627 0.4902
0.49804 0.47843 0.48235
0.47059 0.4549 0.45098
0.45098 0.43137 0.42353
0.48627 0.45882 0.46667
0.46667 0.43922 0.44706
0.47059 0.43922 0.43137
0.46275 0.41961 0.41569
0.49412 0.47451 0.48235
0.39608 0.38824 0.4
0.51765 0.52941 0.53725
0.41176 0.40392 0.39608
0.61176 0.60392 0.61176
0.55294 0.5451 0.53725
0.37255 0.34902 0.33725
0.39216 0.35686 0.33725
0.36863 0.34902 0.31373
0.43922 0.40784 0.41176
0.43922 0.39216 0.37255
0.42745 0.38431 0.36471
0.45098 0.42745 0.44314
0.33725 0.31373 0.28235
0.31765 0.29412 0.24706
0.34902 0.32549 0.29804
0.99608 1 1
0.59608 0.60392 0.62745
0.27059 0.26275 0.22353
0.35686 0.31765 0.23529
0.33725 0.35686 0.36863
0.4 0.42745 0.45098
0.53725 0.55294 0.57255
0.30588 0.32157 0.32549
0.38824 0.4 0.40392
0.37647 0.39608 0.41569
0.79216 0.79608 0.79216
0.4549 0.47059 0.4902
0.4549 0.47451 0.49412
0.45882 0.46667 0.47843
0.48235 0.48627 0.50196
0.39608 0.41176 0.42353
0.42353 0.44706 0.46667
0.44314 0.45098 0.46275
0.35294 0.32941 0.29412
0.26667 0.25098 0.21176
0.31765 0.29412 0.23922
0.3451 0.31765 0.28235
0.35686 0.33725 0.2549
0.36863 0.32157 0.24706
0.32157 0.32941 0.31373
0.32157 0.32941 0.29804
0.39608 0.40784 0.40784
0.38824 0.4 0.41569
0.47451 0.49412 0.52157
0.4549 0.47059 0.50196
0.49412 0.49804 0.51765
0.31765 0.29412 0.23922
0.34902 0.31765 0.22745
0.32157 0.2902 0.19216
0.37647 0.35686 0.27843
0.32941 0.30588 0.23922
0.37255 0.33725 0.24706
0.43529 0.43529 0.43922
0.4902 0.48627 0.49412
0.44706 0.40784 0.36863
0.40784 0.37647 0.3451
0.5098 0.49412 0.43922
0.33333 0.30588 0.17255
0.39216 0.36471 0.28235
0.52157 0.51373 0.47059
0.54118 0.53333 0.50588
0.5451 0.5451 0.5098
0.49412 0.48627 0.49804
0.39608 0.40784 0.4
0.52157 0.46667 0.38431
0.35686 0.34118 0.23922
0.38431 0.36078 0.2902
0.39608 0.37647 0.35294
0.32549 0.3098 0.2549
0.3098 0.2902 0.2549
0.07451 0.098039 0.070588
0.35294 0.32549 0.29412
0.36078 0.32549 0.28627
0.35294 0.32549 0.29412
0.34118 0.31373 0.26275
0.35294 0.32941 0.27451
0.3451 0.32941 0.2902
0.34902 0.31373 0.28627
0.3451 0.31765 0.26667
0.3451 0.31765 0.28235
0.36471 0.32549 0.26667
0.35294 0.32549 0.28235
0.37255 0.3451 0.24706
0.35686 0.32549 0.28235
0.35686 0.32549 0.27059
0.35294 0.33725 0.27059
0.36471 0.32941 0.24314
0.35294 0.33333 0.24314
0.34118 0.32941 0.2902
0.36078 0.32941 0.24706
0.3451 0.33333 0.26667
0.34902 0.33333 0.2549
0.35686 0.32941 0.23922
0.37255 0.32941 0.25098
0.38039 0.39216 0.27059
0.35686 0.32549 0.25098
0.36471 0.32157 0.25882
0.37255 0.3098 0.2549
0.38824 0.32157 0.24706
0.35686 0.32549 0.24706
0.36863 0.31765 0.23529
0.35686 0.32157 0.27059
0.35294 0.32549 0.23529
0.36471 0.32549 0.24706
0.38431 0.35294 0.27843
0.37255 0.35294 0.25882
0.35686 0.32157 0.23529
0.37647 0.35294 0.27843
0.38039 0.35294 0.26275
0.37647 0.3451 0.25882
0.31765 0.29412 0.18431
0.36078 0.32941 0.23922
0.36863 0.32157 0.18431
0.33333 0.3098 0.2
0.29804 0.29412 0.25882
0.29412 0.27451 0.18431
0.2902 0.26275 0.21569
0.31765 0.29412 0.24314
0.34902 0.32941 0.23137
0.3098 0.27451 0.22353
0.34902 0.33333 0.26667
0.35686 0.32549 0.31765
0.35294 0.32941 0.25882
0.3098 0.28627 0.23529
0.31373 0.29804 0.19608
0.3098 0.29412 0.19608
0.32549 0.32549 0.29412
0.36863 0.34118 0.29412
0.28627 0.25098 0.13333
0.2902 0.2549 0.14902
0.31765 0.26667 0.1451
0.3098 0.27451 0.15686
0.3098 0.28235 0.16078
0.30196 0.25098 0.13725
0.36863 0.32157 0.19216
0.31373 0.29412 0.18824
0.33725 0.29412 0.20392
0.31765 0.29804 0.20784
0.37647 0.31765 0.23529
0.32941 0.29412 0.23922
0.32549 0.25098 0.16078
0.30588 0.30196 0.23137
0.37255 0.33333 0.21961
0.34118 0.30588 0.23529
0.34902 0.30588 0.21569
0.38039 0.33333 0.21961
0.4 0.33725 0.21569
0.31765 0.30196 0.22745
0.37647 0.33333 0.23529
0.36471 0.32941 0.23922
0.35294 0.33725 0.27059
0.33333 0.32549 0.24314
0.38431 0.33333 0.2549
0.32549 0.32157 0.24314
0.32941 0.32549 0.26667
0.35294 0.33725 0.26275
0.38039 0.34118 0.23529
0.36078 0.33725 0.27451
0.37255 0.33725 0.26667
0.3451 0.33725 0.24314
0.062745 0.054902 0.054902
0.078431 0.078431 0.062745
0 0.019608 0
0.33333 0.3098 0.27451
0.35294 0.33725 0.27059
0.35686 0.32941 0.29412