# vtk DataFile Version 3.0
vtk output
ASCII
DATASET POLYDATA
POINTS 100 float
1 0.8997 0.88102
1 0.8999 0.68312
1 0.90061 0.48228
1 0.89931 0.28066
1 0.90061 0.081062
1 0.69892 0.88197
1 0.4998 0.8812
1 0.30025 0.88
1 0.097803 0.88272
1 0.70126 0.68287
1 0.69991 0.48089
1 0.50037 0.68114
1 0.49931 0.48284
1 0.69962 0.28079
1 0.70075 0.082073
1 0.50134 0.28601
1 0.50007 0.086789
1 0.29954 0.68092
1 0.30013 0.48064
1 0.10166 0.68498
1 0.099552 0.48466
1 0.30028 0.28009
1 0.29913 0.082692
1 0.10116 0.28608
1 0.10069 0.083924
1 0.89917 -0.1188
1 0.89961 -0.31721
1 0.90089 -0.51802
1 0.89964 -0.71874
1 0.90107 -0.90878
1 0.69936 -0.11811
1 0.70097 -0.31723
1 0.49962 -0.11549
1 0.50021 -0.31888
1 0.69905 -0.5169
1 0.70105 -0.71811
1 0.49963 -0.51794
1 0.50017 -0.71877
1 0.29984 -0.1159
1 0.3003 -0.31877
1 0.098997 -0.11841
1 0.099957 -0.31735
1 0.29988 -0.52006
1 0.30005 -0.71806
1 0.099561 -0.51696
1 0.10005 -0.71652
1 0.69904 -0.90895
1 0.50046 -0.90977
1 0.29964 -0.90824
1 0.099821 -0.90699
1 -0.10101 0.8809
1 -0.29949 0.88189
1 -0.50046 0.88201
1 -0.70005 0.88275
1 -0.099268 0.68256
1 -0.099289 0.4839
1 -0.3004 0.68294
1 -0.2992 0.48388
1 -0.10054 0.28208
1 -0.099712 0.081755
1 -0.30214 0.28406
1 -0.29926 0.081947
1 -0.4987 0.68311
1 -0.50048 0.48117
1 -0.69995 0.683
1 -0.7 0.4801
1 -0.50025 0.27987
1 -0.4997 0.080858
1 -0.70025 0.28204
1 -0.6995 0.082534
1 -0.89971 0.88099
1 -0.9006 0.68193
1 -0.90001 0.48085
1 -0.89948 0.28208
1 -0.89952 0.083962
1 -0.10081 -0.11689
1 -0.10041 -0.31906
1 -0.29979 -0.11824
1 -0.30026 -0.31903
1 -0.099716 -0.52016
1 -0.1003 -0.71925
1 -0.29991 -0.5191
1 -0.29969 -0.71869
1 -0.50152 -0.11804
1 -0.50025 -0.31775
1 -0.70029 -0.11889
1 -0.69996 -0.31983
1 -0.49921 -0.5181
1 -0.49936 -0.71817
1 -0.69979 -0.51997
1 -0.70023 -0.71604
1 -0.10052 -0.90927
1 -0.29997 -0.90995
1 -0.50072 -0.90893
1 -0.69988 -0.90598
1 -0.90073 -0.11614
1 -0.89966 -0.31687
1 -0.90067 -0.51935
1 -0.90015 -0.71904
1 -0.89982 -0.90887

VERTICES 100 200
1 0
1 1
1 2
1 3
1 4
1 5
1 6
1 7
1 8
1 9
1 10
1 11
1 12
1 13
1 14
1 15
1 16
1 17
1 18
1 19
1 20
1 21
1 22
1 23
1 24
1 25
1 26
1 27
1 28
1 29
1 30
1 31
1 32
1 33
1 34
1 35
1 36
1 37
1 38
1 39
1 40
1 41
1 42
1 43
1 44
1 45
1 46
1 47
1 48
1 49
1 50
1 51
1 52
1 53
1 54
1 55
1 56
1 57
1 58
1 59
1 60
1 61
1 62
1 63
1 64
1 65
1 66
1 67
1 68
1 69
1 70
1 71
1 72
1 73
1 74
1 75
1 76
1 77
1 78
1 79
1 80
1 81
1 82
1 83
1 84
1 85
1 86
1 87
1 88
1 89
1 90
1 91
1 92
1 93
1 94
1 95
1 96
1 97
1 98
1 99

POLYGONS 169 676
3 0 1 5
3 17 6 5
3 11 17 5
3 12 11 5
3 9 12 5
3 2 9 5
3 2 1 5
3 2 1 0
3 19 7 6
3 19 17 6
3 55 19 17
3 20 55 17
3 23 20 17
3 18 23 17
3 15 18 17
3 12 15 17
3 12 11 17
3 14 15 12
3 13 14 12
3 3 13 12
3 10 3 12
3 10 9 12
3 3 10 9
3 3 2 9
3 54 8 7
3 54 19 7
3 57 54 19
3 57 55 19
3 60 57 55
3 61 60 55
3 58 61 55
3 24 58 55
3 23 24 55
3 23 20 55
3 22 24 23
3 16 22 23
3 21 16 23
3 21 18 23
3 16 21 18
3 16 15 18
3 30 16 15
3 30 14 15
3 26 30 14
3 25 26 14
3 4 25 14
3 3 4 14
3 3 13 14
3 56 50 8
3 56 54 8
3 63 56 54
3 63 57 54
3 68 63 57
3 66 68 57
3 67 66 57
3 67 60 57
3 67 61 60
3 85 67 61
3 83 85 61
3 84 83 61
3 77 84 61
3 76 77 61
3 75 76 61
3 40 75 61
3 59 40 61
3 59 58 61
3 40 59 58
3 40 24 58
3 39 40 24
3 38 39 24
3 32 38 24
3 32 22 24
3 30 32 22
3 30 16 22
3 39 32 30
3 39 38 32
3 33 39 30
3 36 33 30
3 31 36 30
3 27 31 30
3 27 26 30
3 4 25 26
3 62 51 50
3 62 56 50
3 65 62 56
3 65 63 56
3 73 65 63
3 73 68 63
3 74 73 68
3 95 74 68
3 69 95 68
3 67 69 68
3 67 66 68
3 95 69 67
3 95 85 67
3 96 95 85
3 97 96 85
3 86 97 85
3 87 86 85
3 84 87 85
3 84 83 85
3 82 87 84
3 81 82 84
3 79 81 84
3 78 79 84
3 78 77 84
3 79 78 77
3 79 76 77
3 45 79 76
3 44 45 76
3 42 44 76
3 41 42 76
3 40 41 76
3 40 75 76
3 42 41 40
3 42 39 40
3 37 42 39
3 36 37 39
3 36 33 39
3 46 37 36
3 35 46 36
3 28 35 36
3 34 28 36
3 34 31 36
3 28 34 31
3 28 27 31
3 64 52 51
3 64 62 51
3 72 64 62
3 72 65 62
3 72 73 65
3 72 73 74
3 97 96 95
3 94 98 97
3 90 94 97
3 88 90 97
3 89 88 97
3 89 86 97
3 88 89 86
3 88 87 86
3 88 82 87
3 94 88 82
3 94 90 88
3 93 94 82
3 92 93 82
3 91 92 82
3 49 91 82
3 80 49 82
3 79 80 82
3 79 81 82
3 49 80 79
3 49 45 79
3 48 49 45
3 47 48 45
3 43 47 45
3 42 43 45
3 42 44 45
3 47 43 42
3 47 37 42
3 47 46 37
3 28 29 46
3 28 35 46
3 71 53 52
3 71 64 52
3 71 72 64
3 99 94 98
3 99 94 93
3 48 49 91
3 29 46 47
3 70 71 53

POINT_DATA 100
COLOR_SCALARS scalars 3
1 0.19608 0.19608
1 0.19608 0.19608
1 0.19608 0.19608
1 0.19608 0.19608
1 0.19608 0.19608
1 0.19608 0.19608
1 0.19608 0.19608
1 0.19608 0.19608
1 0.19608 0.19608
1 0.19608 0.19608
1 0.19608 0.19608
1 0.19608 0.19608
1 0.19608 0.19608
1 0.19608 0.19608
1 0.19608 0.19608
1 0.19608 0.19608
1 0.19608 0.19608
1 0.19608 0.19608
1 0.19608 0.19608
1 0.19608 0.19608
1 0.19608 0.19608
1 0.19608 0.19608
1 0.19608 0.19608
1 0.19608 0.19608
1 0.19608 0.19608
1 0.19608 0.19608
1 0.19608 0.19608
1 0.19608 0.19608
1 0.19608 0.19608
1 0.19608 0.19608
1 0.19608 0.19608
1 0.19608 0.19608
1 0.19608 0.19608
1 0.19608 0.19608
1 0.19608 0.19608
1 0.19608 0.19608
1 0.19608 0.19608
1 0.19608 0.19608
1 0.19608 0.19608
1 0.19608 0.19608
1 0.19608 0.19608
1 0.19608 0.19608
1 0.19608 0.19608
1 0.19608 0.19608
1 0.19608 0.19608
1 0.19608 0.19608
1 0.19608 0.19608
1 0.19608 0.19608
1 0.19608 0.19608
1 0.19608 0.19608
1 0.19608 0.19608
1 0.19608 0.19608
1 0.19608 0.19608
1 0.19608 0.19608
1 0.19608 0.19608
1 0.19608 0.19608
1 0.19608 0.19608
1 0.19608 0.19608
1 0.19608 0.19608
1 0.19608 0.19608
1 0.19608 0.19608
1 0.19608 0.19608
1 0.19608 0.19608
1 0.19608 0.19608
1 0.19608 0.19608
1 0.19608 0.19608
1 0.19608 0.19608
1 0.19608 0.19608
1 0.19608 0.19608
1 0.19608 0.19608
1 0.19608 0.19608
1 0.19608 0.19608
1 0.19608 0.19608
1 0.19608 0.19608
1 0.19608 0.19608
1 0.19608 0.19608
1 0.19608 0.19608
1 0.19608 0.19608
1 0.19608 0.19608
1 0.19608 0.19608
1 0.19608 0.19608
1 0.19608 0.19608
1 0.19608 0.19608
1 0.19608 0.19608
1 0.19608 0.19608
1 0.19608 0.19608
1 0.19608 0.19608
1 0.19608 0.19608
1 0.19608 0.19608
1 0.19608 0.19608
1 0.19608 0.19608
1 0.19608 0.19608
1 0.19608 0.19608
1 0.19608 0.19608
1 0.19608 0.19608
1 0.19608 0.19608
1 0.19608 0.19608
1 0.19608 0.19608
1 0.19608 0.19608
1 0.19608 0.19608
