# vtk DataFile Version 3.0
vtk output
ASCII
DATASET POLYDATA
POINTS 2003 float
0.96454 -0.19836 3.2095
0.76456 -0.094361 3.5048
0.77578 -0.11392 3.4476
0.79174 -0.12967 3.402
0.88341 -0.16162 3.3131
0.90236 -0.18771 3.2371
0.79983 -0.15486 3.3279
0.80876 -0.18456 3.2405
1.07 -0.26192 3.0279
0.96639 -0.21131 3.1712
0.9806 -0.22977 3.1175
1.0006 -0.25173 3.0537
1.0919 -0.2898 2.9467
1.1252 -0.31356 2.8785
1.0182 -0.28839 2.9463
1.0109 -0.31302 2.8729
0.90553 -0.21095 3.1685
0.91288 -0.22661 3.1226
0.90392 -0.2489 3.056
0.80559 -0.21007 3.1648
0.83081 -0.22509 3.1219
0.80905 -0.24802 3.0527
0.9111 -0.28273 2.9563
0.91152 -0.31376 2.8645
0.80949 -0.28267 2.9501
0.80967 -0.31194 2.8635
0.6816 -0.051415 3.6267
0.60588 -0.0099418 3.7448
0.61434 -0.041719 3.6512
0.51302 0.045169 3.9021
0.51397 0.025453 3.8438
0.41699 0.027279 3.8431
0.51286 -0.0036547 3.7575
0.50948 -0.03985 3.6502
0.40643 -0.0051911 3.7463
0.41101 -0.037064 3.6523
0.3544 0.019691 3.8167
0.31357 -0.0030308 3.7469
0.30024 -0.021992 3.6899
0.30259 -0.042312 3.6299
0.25189 0.00037343 3.7531
0.24933 -0.020794 3.6903
0.24439 -0.038508 3.6375
0.076953 -0.03536 3.6363
0.021663 -0.014394 3.6949
0.024573 -0.033012 3.64
0.70944 -0.080574 3.5421
0.71098 -0.11165 3.4502
0.61575 -0.078553 3.5423
0.61178 -0.1086 3.4531
0.7097 -0.1288 3.3994
0.60266 -0.12622 3.4003
0.70914 -0.1524 3.3295
0.71499 -0.18328 3.2384
0.61389 -0.14967 3.3316
0.60456 -0.17806 3.247
0.50741 -0.076406 3.5418
0.51356 -0.10755 3.45
0.41015 -0.076275 3.5361
0.40944 -0.11058 3.4345
0.39829 -0.12284 3.3975
0.51788 -0.12447 3.4002
0.51303 -0.14823 3.3296
0.51731 -0.17763 3.2428
0.41117 -0.14382 3.3362
0.40736 -0.17359 3.2478
0.7071 -0.2128 3.1505
0.71204 -0.24522 3.0549
0.60386 -0.21065 3.1505
0.6139 -0.24283 3.0558
0.70835 -0.28102 2.9487
0.71179 -0.31109 2.8599
0.6117 -0.27799 2.9516
0.60872 -0.30862 2.8607
0.51172 -0.20844 3.1512
0.51285 -0.24305 3.0488
0.41184 -0.20696 3.1493
0.42053 -0.23778 3.0586
0.51889 -0.27724 2.948
0.53085 -0.30837 2.8566
0.4431 -0.26484 2.9799
0.37329 -0.31299 2.833
0.31028 -0.07439 3.5354
0.31296 -0.10417 3.4474
0.24243 -0.069741 3.5449
0.24295 -0.1055 3.4391
0.31026 -0.12116 3.397
0.25042 -0.11982 3.3972
0.30621 -0.14158 3.3363
0.32026 -0.16894 3.2561
0.23596 -0.13802 3.3424
0.2434 -0.16462 3.2641
0.075258 -0.058946 3.5664
-0.0077125 -0.067315 3.5364
-0.0026248 -0.10131 3.4361
0.00081451 -0.11539 3.3947
0.077559 -0.14789 3.3033
0.10274 -0.17106 3.2362
0.02765 -0.13226 3.3464
0.012812 -0.16448 3.2501
0.34391 -0.1991 3.1683
0.34936 -0.22333 3.0969
0.27103 -0.24597 3.025
0.17733 -0.20755 3.1329
0.19406 -0.22171 3.092
0.21652 -0.24178 3.034
0.29728 -0.27447 2.9423
0.31399 -0.30782 2.8446
0.21118 -0.27211 2.9439
0.20696 -0.30544 2.8449
0.10982 -0.20313 3.1417
0.1096 -0.22093 3.089
0.10514 -0.24059 3.0305
0.010955 -0.20049 3.1433
0.011233 -0.21952 3.087
0.0071913 -0.23886 3.0295
0.11362 -0.26934 2.946
0.11188 -0.30407 2.843
0.014201 -0.26724 2.946
0.017791 -0.3026 2.8415
0.11052 -0.32313 2.7865
0.0098517 -0.32205 2.7834
1.1135 -0.33075 2.8268
1.0129 -0.32905 2.8256
0.89479 -0.32978 2.816
0.81502 -0.32871 2.8142
0.70526 -0.32698 2.8124
0.63119 -0.32511 2.8133
1.2918 -0.3938 2.6514
1.2212 -0.36168 2.742
1.2145 -0.39557 2.6413
1.2771 -0.41778 2.5795
1.265 -0.42886 2.5459
1.2096 -0.41831 2.5737
1.2092 -0.43325 2.5294
1.196 -0.4569 2.4586
1.1739 -0.48439 2.3758
1.1086 -0.35927 2.7421
1.1039 -0.39256 2.6433
1.0118 -0.35605 2.7456
1.0128 -0.38884 2.6485
1.1053 -0.41572 2.5748
1.1079 -0.43251 2.5252
1.1117 -0.45858 2.4483
1.0092 -0.4158 2.5685
1.0065 -0.43268 2.5184
1.0146 -0.45663 2.448
0.90971 -0.35458 2.7435
0.90799 -0.38943 2.6402
0.81015 -0.35284 2.7424
0.81223 -0.38759 2.6397
0.90672 -0.41795 2.5557
0.9122 -0.43137 2.5163
0.91064 -0.45332 2.4513
0.80569 -0.41468 2.5591
0.81319 -0.42975 2.5149
0.81746 -0.45013 2.4549
1.1107 -0.49181 2.3498
1.1015 -0.51683 2.2752
1.0137 -0.49057 2.3474
1.0056 -0.51504 2.2745
1.0865 -0.5311 2.232
1.0197 -0.53205 2.225
1.0723 -0.54885 2.1786
1.0197 -0.55568 2.1551
1.0319 -0.57793 2.09
0.91207 -0.48719 2.3511
0.93234 -0.51111 2.2815
0.84496 -0.47898 2.3712
0.95274 -0.53198 2.221
0.76485 -0.52781 2.2216
0.88386 -0.59529 2.0293
0.78696 -0.55496 2.1426
0.81016 -0.58631 2.0512
0.90758 -0.61603 1.9694
0.90961 -0.63166 1.9232
0.89541 -0.65375 1.8569
0.81246 -0.61372 1.9702
0.81971 -0.63143 1.9183
0.80747 -0.65562 1.8459
0.8694 -0.68083 1.7752
0.81966 -0.6821 1.7683
0.70513 -0.3498 2.7449
0.72178 -0.38512 2.6413
0.62883 -0.34512 2.7539
0.65634 -0.37376 2.6709
0.73723 -0.41112 2.5653
0.74673 -0.42743 2.5176
0.7148 -0.45417 2.4365
0.57455 -0.41632 2.5397
0.59423 -0.4285 2.5049
0.60943 -0.45141 2.438
0.4656 -0.35163 2.7244
0.50025 -0.38056 2.6409
0.40406 -0.34417 2.7427
0.41573 -0.37626 2.6484
0.51515 -0.41147 2.5504
0.49992 -0.42824 2.4998
0.51513 -0.44599 2.4482
0.40169 -0.40699 2.5565
0.3918 -0.42622 2.499
0.40976 -0.44243 2.4521
0.68514 -0.48455 2.3447
0.69826 -0.51009 2.2699
0.6139 -0.4823 2.3469
0.60868 -0.51155 2.26
0.71497 -0.52661 2.222
0.6166 -0.52711 2.2144
0.70804 -0.55115 2.149
0.7099 -0.58521 2.0482
0.60892 -0.54907 2.1489
0.61464 -0.5821 2.0515
0.51305 -0.47923 2.3496
0.51103 -0.51049 2.2569
0.41054 -0.47775 2.3476
0.41109 -0.50991 2.2524
0.50296 -0.52532 2.2125
0.40725 -0.52482 2.208
0.51188 -0.54738 2.1478
0.5115 -0.5816 2.0465
0.41251 -0.54508 2.1484
0.41069 -0.57897 2.0479
0.31052 -0.34259 2.7414
0.31106 -0.37467 2.6465
0.20878 -0.33998 2.7428
0.20775 -0.37201 2.6479
0.30795 -0.40535 2.5555
0.33404 -0.42479 2.4996
0.31056 -0.44196 2.4473
0.20886 -0.40679 2.545
0.20336 -0.42293 2.4969
0.21108 -0.43991 2.4471
0.1104 -0.34005 2.7364
0.10922 -0.36891 2.6509
0.010164 -0.33979 2.7309
0.013605 -0.36508 2.6562
0.10855 -0.40559 2.5423
0.1124 -0.43754 2.4479
0.030222 -0.39865 2.5579
0.055222 -0.42747 2.4742
0.30721 -0.47575 2.347
0.31177 -0.50923 2.2482
0.21208 -0.47483 2.3438
0.22566 -0.50549 2.2539
0.31311 -0.54293 2.1485
0.32776 -0.57348 2.059
0.23687 -0.52912 2.1846
0.12548 -0.46643 2.3632
0.15482 -0.48969 2.2962
0.70994 -0.61274 1.9667
0.71125 -0.62995 1.9158
0.71227 -0.65271 1.8486
0.6141 -0.61075 1.9666
0.61198 -0.62727 1.9176
0.61247 -0.65171 1.8452
0.71057 -0.67761 1.7747
0.61223 -0.67646 1.772
0.51145 -0.6114 1.9582
0.50041 -0.62677 1.912
0.50825 -0.64882 1.8473
0.4146 -0.61009 1.9561
0.42653 -0.62602 1.9096
0.44518 -0.64544 1.8533
0.51131 -0.67467 1.7709
0.45078 -0.66519 1.7952
0.3593 -0.60642 1.9635
0.073849 -0.65208 1.8104
-0.017586 -0.60728 1.9373
0.012786 -0.62247 1.8942
0.011623 -0.63879 1.8458
0.092282 -0.67101 1.7555
0.010356 -0.66588 1.7655
-0.12251 -0.038389 3.6149
-0.17109 -0.037638 3.614
-0.094684 -0.068075 3.5287
-0.086863 -0.094979 3.4496
-0.19378 -0.062224 3.5398
-0.181 -0.091789 3.4531
-0.090207 -0.11339 3.3949
-0.1825 -0.11884 3.3729
-0.082327 -0.13067 3.3442
-0.089287 -0.16247 3.2496
-0.17936 -0.1342 3.3277
-0.19185 -0.16046 3.2491
-0.28616 -0.069418 3.5128
-0.28745 -0.091037 3.4487
-0.34721 -0.070395 3.506
-0.38682 -0.089377 3.4474
-0.28767 -0.11533 3.3767
-0.38589 -0.1126 3.3787
-0.2894 -0.15973 3.2452
-0.40154 -0.12937 3.328
-0.38719 -0.15694 3.2473
-0.08899 -0.19932 3.1406
-0.087046 -0.21689 3.0886
-0.090024 -0.23648 3.0305
-0.19158 -0.19777 3.1387
-0.19742 -0.21662 3.0825
-0.18243 -0.23548 3.0276
-0.087655 -0.26339 2.9509
-0.084973 -0.29931 2.8448
-0.18716 -0.26687 2.9344
-0.15806 -0.29455 2.8543
-0.29539 -0.19811 3.1312
-0.29957 -0.21744 3.0737
-0.27176 -0.23645 3.0192
-0.37959 -0.18209 3.1733
-0.34327 -0.2168 3.0728
-0.24079 -0.25978 2.952
-0.47114 -0.099101 3.4133
-0.61413 -0.093843 3.4199
-0.47921 -0.11444 3.3674
-0.55711 -0.11497 3.3609
-0.48298 -0.12764 3.3281
-0.46119 -0.13889 3.2961
-0.54346 -0.12478 3.3327
-0.62905 -0.26179 2.9218
-0.60379 -0.28881 2.8433
-0.71741 -0.21622 3.0511
-0.70792 -0.23169 3.0059
-0.8021 -0.18201 3.1471
-0.79165 -0.2114 3.0607
-0.81015 -0.23008 3.0043
-0.68634 -0.25636 2.9342
-0.68937 -0.28733 2.8424
-0.78809 -0.25229 2.9399
-0.7934 -0.28468 2.8437
-0.86645 -0.18245 3.1418
-0.87113 -0.20939 3.0617
-0.87934 -0.22629 3.0111
-0.97826 -0.22305 3.0145
-0.96316 -0.22484 3.0102
-0.89018 -0.24693 2.9494
-0.89151 -0.28402 2.8395
-0.98416 -0.24855 2.9387
-0.98792 -0.2818 2.84
-1.0666 -0.24852 2.9336
-1.079 -0.27713 2.8481
-1.2191 -0.28459 2.8173
-1.2465 -0.28391 2.8176
-0.088118 -0.31928 2.7855
-0.52603 -0.31876 2.7596
-0.59177 -0.3142 2.7689
-0.6906 -0.31288 2.7666
-0.7871 -0.31164 2.7642
-0.89662 -0.31149 2.7578
-0.99653 -0.31128 2.7522
-1.0908 -0.30621 2.7613
-1.1922 -0.30831 2.7487
-1.2655 -0.30681 2.7486
-1.401 -0.31803 2.7068
-0.082338 -0.33665 2.7344
-0.062816 -0.35998 2.6666
-0.43093 -0.37227 2.6071
-0.32134 -0.44254 2.4059
-0.40416 -0.39732 2.5346
-0.38641 -0.41849 2.473
-0.3831 -0.43401 2.4273
-0.20823 -0.50144 2.2387
-0.18693 -0.51887 2.1884
-0.13316 -0.54285 2.1208
-0.096546 -0.56975 2.0434
-0.17941 -0.53594 2.1383
-0.19059 -0.56819 2.0421
-0.29342 -0.46456 2.3425
-0.28657 -0.49643 2.2486
-0.38752 -0.46151 2.3456
-0.38889 -0.49501 2.2464
-0.29118 -0.51819 2.1839
-0.39217 -0.51671 2.1819
-0.28981 -0.53534 2.1332
-0.29151 -0.56437 2.0471
-0.39488 -0.53414 2.1302
-0.38752 -0.56295 2.0453
-0.50986 -0.33104 2.7242
-0.49329 -0.35659 2.6496
-0.58302 -0.33156 2.7181
-0.59314 -0.35381 2.6516
-0.49168 -0.39105 2.5477
-0.49581 -0.4159 2.4739
-0.4872 -0.43164 2.4278
-0.59154 -0.38813 2.5501
-0.58603 -0.4163 2.467
-0.59525 -0.43354 2.4154
-0.68657 -0.33179 2.7109
-0.68944 -0.35233 2.6499
-0.78446 -0.3294 2.7118
-0.78986 -0.34985 2.651
-0.68991 -0.38683 2.5477
-0.69224 -0.41305 2.47
-0.68793 -0.43169 2.4151
-0.79236 -0.38757 2.5391
-0.79078 -0.41374 2.4618
-0.77874 -0.42854 2.4187
-0.4885 -0.45939 2.3456
-0.48962 -0.49392 2.2433
-0.58945 -0.45653 2.3477
-0.58744 -0.49214 2.2424
-0.48903 -0.51757 2.1733
-0.59272 -0.51586 2.1719
-0.48985 -0.53397 2.1247
-0.49198 -0.56004 2.0474
-0.59108 -0.53228 2.1234
-0.59035 -0.55865 2.0453
-0.68964 -0.45452 2.3474
-0.68733 -0.48762 2.2495
-0.78957 -0.45084 2.352
-0.78926 -0.4859 2.2482
-0.68788 -0.51428 2.1706
-0.78776 -0.51365 2.1662
[...]
POINT_DATA 2003
COLOR_SCALARS scalars 3
0.6902 0.67451 0.67059
0.77647 0.73725 0.70588
0.74902 0.72941 0.70588
0.74118 0.72157 0.70588
0.72941 0.7098 0.70588
0.7098 0.69412 0.6902
0.73333 0.71373 0.70196
0.72549 0.70196 0.69412
0.62745 0.60784 0.6
0.67451 0.6549 0.64706
0.66275 0.64314 0.63137
0.64314 0.63137 0.61961
0.61176 0.59216 0.57647
0.6 0.57647 0.54902
0.63137 0.61569 0.60392
0.63137 0.61176 0.60784
0.6902 0.67843 0.66667
0.68627 0.67059 0.65882
0.67843 0.65882 0.65098
0.71373 0.6902 0.68235
0.70588 0.68627 0.67843
0.69804 0.68235 0.66667
0.66275 0.64706 0.64314
0.6549 0.63137 0.63137
0.68235 0.66667 0.6549
0.67059 0.65098 0.64314
0.74902 0.70588 0.64706
0.69804 0.63529 0.55294
0.72941 0.67843 0.59608
0.65882 0.58824 0.41569
0.63922 0.56078 0.43529
0.61176 0.53333 0.38431
0.67451 0.60784 0.47843
0.69412 0.63922 0.54118
0.63529 0.57255 0.43137
0.65882 0.60784 0.49804
0.61176 0.53725 0.36471
0.59216 0.52549 0.38431
0.6 0.53333 0.39608
0.61569 0.55686 0.44314
0.51765 0.44706 0.32549
0.52941 0.46275 0.32941
0.52941 0.46667 0.36078
0.42745 0.36078 0.24706
0.05098 0.035294 0.0078431
0.18824 0.17255 0.13725
0.75686 0.72157 0.68235
0.74118 0.72157 0.68235
0.74118 0.70196 0.63529
0.73725 0.70588 0.65882
0.74118 0.71373 0.68235
0.73333 0.70588 0.65882
0.73333 0.71373 0.68235
0.72549 0.70588 0.68235
0.73725 0.7098 0.67451
0.72941 0.7098 0.67843
0.7098 0.67059 0.59608
0.72157 0.68627 0.62353
0.67843 0.63529 0.55294
0.6902 0.6549 0.58824
0.68627 0.6549 0.58824
0.72157 0.6902 0.63529
0.72157 0.6902 0.63922
0.72157 0.69412 0.6549
0.6902 0.6549 0.6
0.6902 0.66275 0.61569
0.72157 0.69804 0.67843
0.62353 0.60784 0.59216
0.72157 0.70588 0.67451
0.67843 0.66667 0.64314
0.54902 0.53725 0.51765
0.67059 0.65098 0.63529
0.53725 0.52549 0.50588
0.44314 0.42745 0.40784
0.7098 0.68627 0.6549
0.6902 0.67059 0.63922
0.67451 0.6549 0.60784
0.65882 0.64706 0.59216
0.65882 0.64706 0.61569
0.63137 0.61176 0.58431
0.63922 0.62745 0.57647
0.36471 0.35686 0.35686
0.63922 0.59216 0.49804
0.65098 0.60784 0.52549
0.54902 0.49804 0.4
0.61569 0.56863 0.48235
0.6549 0.61569 0.54902
0.61961 0.59216 0.49804
0.65098 0.61569 0.5451
0.63922 0.61176 0.54902
0.56863 0.53333 0.45098
0.49412 0.46275 0.38431
0.44706 0.41176 0.28235
0.24706 0.21961 0.16863
0.23922 0.21569 0.17255
0.31765 0.29412 0.24706
0.26275 0.24314 0.20784
0.3098 0.29412 0.25882
0.3098 0.2902 0.24706
0.42353 0.40784 0.35294
0.64706 0.61176 0.56471
0.56471 0.5451 0.51765
0.33333 0.32549 0.33333
0.32157 0.31373 0.29804
0.34902 0.34118 0.33725
0.41176 0.40784 0.38824
0.39216 0.38431 0.38039
0.48235 0.47059 0.44706
0.51373 0.49804 0.45882
0.52941 0.5098 0.47451
0.39216 0.36863 0.31765
0.45882 0.43529 0.36471
0.48627 0.46667 0.40392
0.46275 0.44314 0.38431
0.47843 0.4549 0.40784
0.48627 0.47059 0.42353
0.5098 0.4902 0.44314
0.5098 0.49412 0.45882
0.50196 0.48627 0.4549
0.50588 0.4902 0.46275
0.5098 0.4902 0.45882
0.50196 0.4902 0.46667
0.59216 0.57255 0.55294
0.62745 0.60784 0.59216
0.6549 0.63137 0.62745
0.66275 0.64314 0.63137
0.66667 0.63922 0.63529
0.56863 0.5451 0.50196
0.5098 0.48627 0.46275
0.55294 0.53333 0.50588
0.53725 0.51765 0.49804
0.51765 0.49412 0.47451
0.51765 0.49804 0.47843
0.53333 0.51373 0.49412
0.52549 0.50588 0.48627
0.51373 0.49804 0.48235
0.50196 0.48627 0.47451
0.58824 0.56471 0.54902
0.57647 0.55294 0.53725
0.61569 0.59216 0.58039
0.6 0.57647 0.56078
0.56471 0.5451 0.52549
0.56078 0.53725 0.51765
0.53725 0.51765 0.49804
0.58824 0.56471 0.5451
0.58039 0.55294 0.53725
0.56471 0.54118 0.51765
0.63922 0.61961 0.60392
0.61961 0.59608 0.57647
0.64706 0.62745 0.61961
0.62353 0.60392 0.58824
0.6 0.57647 0.55686
0.59216 0.56863 0.55294
0.57255 0.54902 0.52941
0.60392 0.58039 0.56078
0.58824 0.56471 0.54902
0.56078 0.5451 0.51765
0.50588 0.49412 0.47451
0.48627 0.47843 0.45882
0.52549 0.5098 0.49412
0.49412 0.48627 0.46667
0.47843 0.47059 0.45098
0.47843 0.46667 0.45098
0.46667 0.46275 0.43922
0.44706 0.43922 0.41176
0.42745 0.41569 0.40392
0.53725 0.51765 0.4902
0.50588 0.49412 0.46667
0.5451 0.53725 0.49804
0.46667 0.45882 0.43922
0.33725 0.3098 0.25882
0.35686 0.32157 0.26667
0.38431 0.34902 0.30196
0.42745 0.38824 0.32941
0.38431 0.34902 0.2902
0.4 0.36863 0.30196
0.43137 0.38824 0.32549
0.45882 0.41176 0.35294
0.47059 0.41961 0.34902
0.48235 0.42745 0.35294
0.45882 0.40784 0.32549
0.47843 0.42353 0.34118
0.64314 0.62745 0.61569
0.61176 0.59608 0.58431
0.69412 0.65098 0.58824
0.6 0.59216 0.61961
0.59216 0.58039 0.56078
0.56471 0.56078 0.52941
0.44314 0.41569 0.4
0.33333 0.3098 0.29412
0.3451 0.32157 0.30588
0.4 0.37647 0.3451
0.35294 0.32941 0.32549
0.38039 0.35686 0.33333
0.43922 0.42745 0.40392
0.51373 0.49804 0.45882
0.43529 0.41176 0.37647
0.50196 0.47843 0.42745
0.4902 0.46275 0.41176
0.53725 0.50196 0.4549
0.54118 0.49412 0.44314
0.53333 0.4902 0.43922
0.36863 0.34118 0.3098
0.41569 0.38039 0.33725
0.47843 0.45098 0.4
0.5098 0.46275 0.41176
0.42353 0.38824 0.34118
0.5098 0.46275 0.40392
0.47059 0.42745 0.37647
0.4902 0.43922 0.38039
0.51373 0.46275 0.40392
0.5098 0.4549 0.38431
0.50588 0.46667 0.40784
0.51765 0.46667 0.41176
0.51765 0.47843 0.41961
0.5098 0.45882 0.39216
0.50588 0.45098 0.39608
0.50588 0.45882 0.38824
0.51765 0.46275 0.39216
0.51765 0.46275 0.38824
0.50588 0.45098 0.38039
0.50588 0.45098 0.37255
0.53333 0.51373 0.47451
0.53333 0.50588 0.46667
0.52941 0.50196 0.4549
0.52549 0.49412 0.44706
0.53333 0.49412 0.44706
0.53725 0.4902 0.43529
0.52941 0.4902 0.43529
0.52157 0.48627 0.43922
0.52549 0.48235 0.42745
0.51765 0.48235 0.43529
0.50588 0.4902 0.45882
0.50588 0.48627 0.45098
0.50196 0.4902 0.46275
0.50588 0.4902 0.46667
0.5098 0.4902 0.45098
0.51373 0.4902 0.44314
0.5098 0.4902 0.46275
0.51765 0.49804 0.44314
0.52549 0.48235 0.42353
0.52157 0.47451 0.41569
0.52157 0.48235 0.42353
0.51765 0.47451 0.41569
0.51765 0.46667 0.4
0.51765 0.47059 0.39216
0.51373 0.47059 0.40784
0.51765 0.4902 0.43922
0.52157 0.4902 0.43137
0.49804 0.44314 0.37647
0.50588 0.44314 0.36863
0.50588 0.45098 0.36471
0.5098 0.4549 0.37647
0.5098 0.4549 0.37255
0.52549 0.46667 0.37647
0.51765 0.45882 0.36471
0.5451 0.48235 0.38431
0.52157 0.46667 0.38431
0.52941 0.47059 0.38431
0.53725 0.47843 0.38431
0.5098 0.4549 0.36471
0.51373 0.45882 0.36078
0.54118 0.47451 0.38431
0.56863 0.50196 0.4
0.56471 0.49412 0.39608
0.47843 0.43922 0.34118
0.50196 0.46275 0.37647
0.50588 0.47059 0.40392
0.51373 0.47059 0.40392
0.49804 0.45882 0.38039
0.5098 0.46275 0.37255
0.49412 0.4549 0.37255
0 0 0
0.023529 0.0039216 0
0.21961 0.2 0.14118
0.39608 0.37647 0.3098
0.14902 0.11765 0.066667
0.39216 0.35294 0.25882
0.42745 0.4 0.3451
0.42745 0.40392 0.34118
0.42353 0.39608 0.33725
0.43529 0.41569 0.35294
0.42745 0.40392 0.34118
0.42353 0.40392 0.36078
0.054902 0.031373 0.015686
0.30196 0.26275 0.17255
0.039216 0.015686 0
0.066667 0.043137 0.019608
0.39216 0.35686 0.26275
0.29412 0.2549 0.18824
0.40784 0.38431 0.33333
0.33725 0.30196 0.20784
0.37255 0.34902 0.28627
0.47451 0.4549 0.40392
0.4902 0.47451 0.43922
0.49412 0.48235 0.45882
0.45882 0.44706 0.40784
0.47843 0.46667 0.43922
0.49804 0.49412 0.47451
0.49804 0.49412 0.47451
0.50588 0.49804 0.47843
0.5098 0.5098 0.49412
0.50588 0.50196 0.49412
0.43922 0.42745 0.39216
0.4549 0.45098 0.42745
0.49412 0.48627 0.46667
0.39216 0.37647 0.31765
0.46275 0.4549 0.42745
0.51765 0.51373 0.52549
0.027451 0.0078431 0
0.1098 0.16471 0.1451
0.070588 0.05098 0.019608
0.05098 0.05098 0.094118
0.14902 0.12941 0.090196
0.33333 0.28627 0.21569
0.10196 0.13725 0.14902
0.41961 0.43137 0.43137
0.47843 0.50588 0.51765
0.32157 0.31373 0.27451
0.33333 0.32941 0.30196
0.11765 0.1098 0.086275
0.2902 0.27843 0.23529
0.30588 0.30588 0.27451
0.39608 0.4 0.39216
0.47059 0.49804 0.51373
0.3451 0.34902 0.33725
0.41569 0.44314 0.45098
0.0078431 0.0039216 0.0078431
0.11373 0.10196 0.082353
0.18824 0.17647 0.16078
0.011765 0.0039216 0.011765
0.054902 0.015686 0.090196
0.28235 0.28235 0.24706
0.36078 0.38431 0.37647
0.17255 0.17255 0.15294
0.31765 0.32941 0.31765
0.05098 0.054902 0.05098
0.20392 0.21176 0.18431
0.023529 0.027451 0.019608
0 0.0039216 0
0.50196 0.49804 0.48627
0.51373 0.54902 0.58039
0.5098 0.5451 0.58431
0.49412 0.54118 0.58039
0.47843 0.51373 0.5451
0.43529 0.48235 0.49412
0.37255 0.40784 0.40392
0.29804 0.31765 0.30196
0.22353 0.23529 0.21961
0.11765 0.13333 0.11765
0 0.011765 0.023529
0.50588 0.49804 0.48627
0.50588 0.49804 0.47843
0.52941 0.55686 0.58824
0.52157 0.53333 0.5451
0.52941 0.55294 0.58039
0.52549 0.5451 0.56863
0.47059 0.48627 0.49804
0.5098 0.50196 0.4902
0.5098 0.49804 0.48235
0.50588 0.48627 0.46667
0.50196 0.48235 0.43922
0.50196 0.49412 0.47059
0.4902 0.47843 0.4549
0.51765 0.51765 0.52549
0.5098 0.50588 0.5098
0.45098 0.44706 0.42745
0.50196 0.51373 0.52549
0.50196 0.49804 0.49412
0.49412 0.50196 0.5098
0.49412 0.4902 0.48627
0.48235 0.48235 0.47059
0.48627 0.49412 0.50196
0.47059 0.47843 0.48235
0.52941 0.56078 0.58431
0.53333 0.56471 0.6
0.51765 0.56078 0.60784
0.52941 0.57255 0.61569
0.52941 0.56471 0.60392
0.52157 0.55686 0.60392
0.51765 0.54902 0.58824
0.52941 0.57647 0.61961
0.52157 0.56471 0.61176
0.5098 0.55686 0.60784
0.5098 0.56078 0.60784
0.51765 0.57255 0.61961
0.49804 0.5451 0.59608
0.50588 0.56863 0.61961
0.52157 0.58039 0.63137
0.51373 0.57647 0.63137
0.51373 0.57255 0.61961
0.51373 0.58824 0.64314
0.51373 0.58431 0.64314
0.5098 0.58039 0.63137
0.41961 0.43922 0.45882
0.43922 0.45098 0.44706
0.4902 0.54118 0.58824
0.36471 0.38039 0.38431
0.47843 0.50588 0.52157
0.46275 0.49412 0.52549
0.47059 0.49412 0.51373
0.45098 0.47843 0.4902
0.4549 0.4902 0.52549
0.43137 0.47451 0.49412
0.49412 0.55294 0.61176
0.44314 0.49804 0.5451
0.49412 0.56471 0.62353
0.46667 0.53725 0.59608
0.33333 0.35686 0.35294
0.38824 0.45098 0.4902
0.40784 0.4549 0.47451
0.41569 0.47451 0.50588
0.36078 0.41961 0.43137
0.40392 0.47843 0.51765
0.4902 0.46667 0.41569
0.47451 0.4549 0.40784
0.47843 0.45098 0.39216
0.47451 0.46275 0.43137
0.45882 0.45098 0.41569
0.45882 0.43922 0.4
0.47451 0.44706 0.37255
0.44314 0.43137 0.37647
0.46275 0.46275 0.44314
0.45098 0.44706 0.42353
0.43529 0.43529 0.41176
0.44314 0.4549 0.4549
0.42745 0.43922 0.43922
0.41961 0.43137 0.41961
0.42353 0.42353 0.39216
0.40784 0.41961 0.4
0.42745 0.4549 0.45882
0.40784 0.43137 0.43529
0.39608 0.41961 0.41569
0.40784 0.44706 0.46667
0.39216 0.42745 0.43529
0.37647 0.41569 0.41569
0.38431 0.40784 0.4
0.36078 0.4 0.39216
0.38824 0.44706 0.46667
0.36863 0.41569 0.43137
0.35686 0.4 0.41176
0.37255 0.44314 0.47451
0.33725 0.39608 0.40784
0.32157 0.36863 0.37647
0.33725 0.37647 0.37255
0.32549 0.36078 0.36078
0.29804 0.33725 0.33333
0.2902 0.32941 0.32157
0.45882 0.51373 0.54902
0.48627 0.55294 0.6
0.40784 0.46275 0.47059
0.45098 0.52157 0.54902
0.50588 0.58824 0.64706
0.50588 0.59216 0.6549
0.50588 0.59216 0.65098
0.4902 0.57647 0.62745
0.50588 0.6 0.65882
0.50196 0.6 0.67059
0.33725 0.36863 0.36471
0.4 0.45882 0.46667
0.29412 0.32157 0.30588
0.33333 0.37647 0.36863
0.46275 0.54902 0.59216
0.49412 0.59608 0.65098
0.49804 0.60784 0.66667
0.40392 0.48627 0.50588
0.45882 0.55686 0.6
0.49412 0.58039 0.64314
0.47451 0.55686 0.62353
0.49804 0.6 0.65882
0.48235 0.57647 0.63529
0.4549 0.53725 0.59216
0.46275 0.55686 0.61569
0.43529 0.52157 0.56863
0.40784 0.49412 0.53725
0.44314 0.54118 0.59216
0.41176 0.5098 0.55686
0.50196 0.60784 0.67059
0.4902 0.60784 0.66667
0.4902 0.61176 0.67059
0.49804 0.65882 0.7451
0.45098 0.57255 0.63529
0.42353 0.60392 0.7098
0.43529 0.55294 0.61569
0.41176 0.55294 0.63922
0.27451 0.30588 0.28235
0.22745 0.26667 0.26667
0.32549 0.38039 0.37647
0.40392 0.51765 0.55686
0.31373 0.39216 0.41569
0.2902 0.4 0.4549
0.47451 0.63922 0.73333
0.34902 0.42353 0.45882
0.30196 0.35686 0.36863
0.27843 0.33333 0.3451
0.32941 0.41961 0.46667
0.28235 0.37255 0.41961
0.41961 0.56863 0.67059
0.26275 0.34118 0.36863
0.25882 0.33725 0.4
0.38039 0.40392 0.42353
0.44314 0.45882 0.48235
0.42745 0.44314 0.46667
0.42745 0.43922 0.47451
0.36863 0.39216 0.40392
0.42745 0.44314 0.47843
0.38039 0.39216 0.43529
0.38039 0.40392 0.42745
0.41961 0.43922 0.46667
0.38824 0.39608 0.42353
0.48235 0.4902 0.52157
0.46667 0.45882 0.34118
0.47059 0.48235 0.50588
0.47059 0.44314 0.43137
0.48627 0.49412 0.44314
0.46275 0.44314 0.37647
0.50196 0.50196 0.52549
0.4902 0.47843 0.49804
0.50588 0.49412 0.5098
0.50588 0.50196 0.51373
0.50196 0.4902 0.5098
0.50588 0.49412 0.51765
0.5098 0.50588 0.53333
0.5098 0.50588 0.52941
0.50588 0.49804 0.51373
0.5098 0.50588 0.52157
0.4902 0.49804 0.52941
0.38824 0.36471 0.37647
0.40392 0.42745 0.42745
0.32157 0.33333 0.41961
0.47843 0.48235 0.51373
0.41176 0.35686 0.3451
0.48235 0.46667 0.4
0.50588 0.48627 0.51373
0.50196 0.48627 0.51373
0.44314 0.42353 0.37647
0.48235 0.46667 0.48627
0.46667 0.45098 0.42353
0.4549 0.44314 0.38039
0.45882 0.44706 0.40784
0.48627 0.47451 0.48627
0.48627 0.47451 0.48235
0.45882 0.47843 0.50196
0.33725 0.34118 0.37255
0.47843 0.42745 0.35294
0.47059 0.44314 0.42353
0.45882 0.47059 0.50196
0.43922 0.4549 0.48235
0.49412 0.48627 0.47059
0.47059 0.4549 0.39216
0.50588 0.49412 0.51765
0.50588 0.49412 0.51765
0.45098 0.42745 0.45098
0.44314 0.42745 0.44706
0.38039 0.38824 0.40392
0.43137 0.42745 0.45098
0.39216 0.39608 0.41961
0.43529 0.34118 0.29804
0.41961 0.41961 0.43529
0.43922 0.41569 0.36078
0.57255 0.53725 0.52941
0.53725 0.53725 0.50196
0.52941 0.52941 0.51373
0.51373 0.51765 0.5098
0.44706 0.40392 0.39216
0.44706 0.4 0.38431
0.39216 0.34902 0.31373
0.41961 0.37255 0.3451
0.38431 0.35686 0.33333
0.37255 0.33725 0.30588
0.49412 0.46667 0.45882
0.48627 0.46667 0.45882
0.42353 0.4 0.38039
0.48627 0.48235 0.48235
0.50196 0.48627 0.49412
0.49412 0.48627 0.48627
0.50196 0.48235 0.4902
0.49804 0.48235 0.48627
0.49804 0.47843 0.4902
0.49412 0.47843 0.47451
0.4902 0.47059 0.47059
0.50196 0.48235 0.49412
0.49804 0.47843 0.48627
0.49412 0.47451 0.47059
0.49412 0.48235 0.48235
0.43922 0.43137 0.42353
0.49804 0.48235 0.48627
0.47059 0.45098 0.43922
0.31373 0.29804 0.26667
0.4902 0.47059 0.46667
0.4902 0.47059 0.46275
0.35686 0.34118 0.33725
0.40784 0.38824 0.37255
0.47843 0.43922 0.45098
0.4902 0.47451 0.48235
0.48627 0.46667 0.48235
0.48627 0.45882 0.46275
0.48235 0.44706 0.45098
0.47451 0.45098 0.46275
0.46667 0.43922 0.4549
0.47059 0.43529 0.43529
0.4549 0.41961 0.42745
0.48235 0.45882 0.47451
0.47843 0.44706 0.44706
0.47843 0.43529 0.43137
0.45882 0.41961 0.40784
0.48627 0.45882 0.4549
0.48235 0.44706 0.44314
0.45882 0.42745 0.41569
0.47451 0.43137 0.43137
0.46667 0.42745 0.42353
0.4549 0.41176 0.40784
0.46275 0.41961 0.41176
0.45882 0.40784 0.4
0.49804 0.47843 0.48627
0.48627 0.46667 0.46667
0.39608 0.38824 0.4
0.51765 0.52941 0.53725
0.36863 0.3451 0.32549
0.43922 0.43922 0.43922
0.39216 0.37647 0.35686
0.61176 0.60392 0.61176
0.58824 0.55294 0.52549
0.55686 0.56863 0.58039
0.4 0.37647 0.36078
0.49804 0.51765 0.52549
0.44314 0.42745 0.43137
0.36471 0.33333 0.3098
0.46667 0.4549 0.45882
0.3451 0.32549 0.32157
0.39216 0.35686 0.32941
0.39608 0.36471 0.36863
0.36863 0.34902 0.31373
0.44314 0.41569 0.42745
0.43922 0.40392 0.40392
0.43529 0.39216 0.37255
0.44314 0.38824 0.36863
0.42745 0.38431 0.36471
0.45098 0.42745 0.44314
0.44706 0.41569 0.41961
0.33725 0.31373 0.28235
0.31765 0.29412 0.24314
0.32157 0.29804 0.26667
0.31373 0.28627 0.21961
0.30588 0.28235 0.21569
0.32157 0.29412 0.2549
0.32157 0.29412 0.24706
0.35294 0.32549 0.29804
0.3451 0.32941 0.30196
0.99608 1 1
0.59608 0.60392 0.62745
0.21569 0.21176 0.18431
0.43922 0.40392 0.3098
0.27059 0.26667 0.23137
0.34118 0.3098 0.22745
0.35686 0.31765 0.23529
0.33725 0.35686 0.36863
0.38039 0.40392 0.42353
0.41176 0.43922 0.47059
0.41569 0.44314 0.46667
0.21961 0.24706 0.24314
0.7451 0.75686 0.77647
1 1 1
0.41961 0.43529 0.46275
0.27843 0.29412 0.2902
0.30588 0.31765 0.31373
0.32549 0.34118 0.34902
0.33333 0.35294 0.36078
0.078431 0.090196 0.098039
0.30196 0.32157 0.31765
0.098039 0.10196 0.090196
0.35294 0.36863 0.38431
0.92941 0.92941 0.92941
0.27451 0.28627 0.28627
0.59216 0.59216 0.59216
0.36471 0.38431 0.4
0.37255 0.39608 0.41176
0.39608 0.41569 0.43529
0.79216 0.79608 0.79216
0.4549 0.47059 0.4902
0.48235 0.49804 0.51373
0.43529 0.45882 0.48235
0.44314 0.46667 0.48627
0.4549 0.47451 0.4902
0.47059 0.48627 0.5098
0.45882 0.46667 0.48235
0.46275 0.46667 0.47451
0.4902 0.49804 0.51765
0.4902 0.48627 0.50196
0.49412 0.49412 0.50588
0.47059 0.48235 0.49804
0.47843 0.49412 0.5098
0.47843 0.48235 0.49412
0.4902 0.4902 0.50588
0.16863 0.17255 0.20392
0.4 0.41569 0.43529
0.33333 0.34118 0.3451
0.43529 0.4549 0.46667
0.74902 0.74902 0.74902
0.054902 0.05098 0.066667
0.41961 0.44706 0.46667
0.44706 0.45882 0.47451
0.41569 0.42353 0.42353
0.44706 0.45882 0.47059
0.45098 0.45882 0.46275
0.35294 0.32941 0.29412
0.27843 0.26275 0.22353
0.2902 0.27059 0.23137
0.043137 0.070588 0.039216
0.34118 0.31765 0.27059
0.33333 0.3098 0.23922
0 0.019608 0
0.078431 0.078431 0.062745
0.3451 0.31765 0.28235
0.36078 0.33333 0.2549
0.36078 0.33333 0.25098
0.35686 0.33725 0.2549
0.36863 0.32157 0.24706
0.3098 0.30588 0.24314
0.30588 0.31373 0.31373
0.33333 0.34902 0.35686
0.32157 0.32157 0.29804
0.31373 0.31765 0.28235
0.35294 0.37255 0.38039
0.35686 0.34118 0.29804
0.44314 0.46275 0.49412
0.42745 0.45098 0.47843
0.37647 0.39608 0.40784
0.34902 0.33333 0.28627
0.42353 0.45098 0.47843
0.36471 0.37255 0.36863
0.36471 0.38824 0.40392
0.42353 0.44314 0.47059
0.47059 0.48627 0.51765
0.47059 0.48627 0.52157
0.48235 0.49804 0.52941
0.48627 0.50196 0.52941
0.45882 0.47843 0.50588
0.47843 0.4902 0.52941
0.4549 0.47059 0.50196
0.44706 0.46275 0.47451
0.49412 0.50196 0.52157
0.4902 0.49804 0.51765
0.50196 0.49412 0.51373
0.48235 0.48235 0.49412
0.31765 0.29412 0.23922
0.34902 0.31765 0.23137
0.33725 0.32157 0.21569
0.34902 0.31765 0.23137
0.34118 0.29804 0.18431
0.29804 0.27843 0.20392
0.30588 0.29412 0.21569
0.40392 0.43137 0.37647
0.36471 0.32549 0.23137
0.37255 0.3451 0.2549
0.40392 0.42353 0.4
0.32941 0.30588 0.23922
0.36863 0.33725 0.24314
0.41569 0.36078 0.29804
0.36471 0.33333 0.23922
0.44706 0.45882 0.4549
0.46275 0.47059 0.47451
0.29412 0.28627 0.27843
0.4902 0.4902 0.49804
0.49412 0.4902 0.49804
0.49412 0.4902 0.49412
0.49412 0.49412 0.49804
0.48235 0.47843 0.48627
0.47843 0.47843 0.48627
0.5098 0.44314 0.42745
0.4 0.36471 0.35686
0.46275 0.42745 0.35294
0.40784 0.37647 0.3451
0.4902 0.47843 0.40392
0.51373 0.49412 0.44706
0.52549 0.5098 0.45882
0.33333 0.30588 0.17255
0.39216 0.36471 0.28235
0.52941 0.52157 0.4902
0.52941 0.52157 0.46667
0.49804 0.4902 0.46275
0.54118 0.53333 0.50588
0.5451 0.5451 0.5098
0.49412 0.4902 0.49804
0.49412 0.48627 0.49804
0.47059 0.56078 0.64314
0.87451 0.90196 0.92549
0.047059 0.035294 0.011765
0.05098 0.043137 0.011765
0.062745 0.05098 0.031373
0.066667 0.05098 0.031373
0.070588 0.05098 0.031373
0.38431 0.47059 0.53725
0.054902 0.039216 0.011765
0.07451 0.05098 0.023529
0.07451 0.05098 0.027451
0.078431 0.054902 0.027451
0.082353 0.058824 0.027451
0.11373 0.05098 0.035294
0.086275 0.062745 0.031373
0.098039 0.082353 0.078431
0.054902 0.039216 0.011765
0.070588 0.047059 0.027451
0.070588 0.047059 0.027451
0.047059 0.039216 0.0078431
0.070588 0.05098 0.027451
0.070588 0.05098 0.023529
0.07451 0.05098 0.027451
0.058824 0.039216 0.015686
0.058824 0.043137 0.023529
0.078431 0.054902 0.031373
0.078431 0.058824 0.027451
0.070588 0.05098 0.023529
0.066667 0.05098 0.023529
0.070588 0.043137 0.035294
0.058824 0.043137 0.027451
0.066667 0.047059 0.031373
0.058824 0.047059 0.031373
0.05098 0.047059 0.023529
0.054902 0.043137 0.023529
0.058824 0.043137 0.031373
0.27059 0.26275 0.25098
0.015686 0.0078431 0
0.0039216 0 0
0.031373 0.031373 0.0039216
0.023529 0.011765 0.0039216
0.011765 0 0
0.043137 0.027451 0.011765
0 0 0
0 0 0
0 0 0
0.015686 0.011765 0.0039216
0.0039216 0 0
0.035294 0.019608 0.0078431
0.019608 0.011765 0.0039216
0.0078431 0 0
0.015686 0.0078431 0.0039216
0.0039216 0 0
0 0.0039216 0
0.0078431 0.0078431 0
0.043137 0.035294 0.015686
0.05098 0.039216 0.015686
0.039216 0.031373 0.015686
0.031373 0.023529 0.011765
0.05098 0.035294 0.023529
0.031373 0.023529 0.011765
0.05098 0.035294 0.027451
0.043137 0.035294 0.019608